ESCALE ; pCOHP file generated by LOBSTER. Energy is shifted such that the Fermi level lies at 0 eV.
         2          1        802  -6.60966e+00   3.34905e+01   1.54679e+01 
Average
No.1:C1->C2(1.5457814950700495)
-22.07760   0.00000  -0.22771   0.00000  -0.22771
-22.02753  -0.32964  -0.24422  -0.32964  -0.24422
-21.97747  -0.27497  -0.25798  -0.27497  -0.25798
-21.92741  -0.21003  -0.26850  -0.21003  -0.26850
-21.87735  -0.16033  -0.27652  -0.16033  -0.27652
-21.82728  -0.14802  -0.28393  -0.14802  -0.28393
-21.77722  -0.18769  -0.29333  -0.18769  -0.29333
-21.72716  -0.28336  -0.30752  -0.28336  -0.30752
-21.67710  -0.42465  -0.32878  -0.42465  -0.32878
-21.62703  -0.58474  -0.35805  -0.58474  -0.35805
-21.57697  -0.72510  -0.39435  -0.72510  -0.39435
-21.52691  -0.80880  -0.43484  -0.80880  -0.43484
-21.47685  -0.81558  -0.47567  -0.81558  -0.47567
-21.42678  -0.74911  -0.51317  -0.74911  -0.51317
-21.37672  -0.63184  -0.54480  -0.63184  -0.54480
-21.32666  -0.49272  -0.56947  -0.49272  -0.56947
-21.27660  -0.35645  -0.58732  -0.35645  -0.58732
-21.22653  -0.23898  -0.59928  -0.23898  -0.59928
-21.17647  -0.14773  -0.60668  -0.14773  -0.60668
-21.12641  -0.08370  -0.61087  -0.08370  -0.61087
-21.07635  -0.04356  -0.61305  -0.04356  -0.61305
-21.02628  -0.02205  -0.61415  -0.02205  -0.61415
-20.97622  -0.01422  -0.61486  -0.01422  -0.61486
-20.92616  -0.01718  -0.61572  -0.01718  -0.61572
-20.87610  -0.03029  -0.61724  -0.03029  -0.61724
-20.82603  -0.05382  -0.61993  -0.05382  -0.61993
-20.77597  -0.08647  -0.62426  -0.08647  -0.62426
-20.72591  -0.12319  -0.63043  -0.12319  -0.63043
-20.67584  -0.15520  -0.63820  -0.15520  -0.63820
-20.62578  -0.17300  -0.64686  -0.17300  -0.64686
-20.57572  -0.17130  -0.65544  -0.17130  -0.65544
-20.52566  -0.15284  -0.66309  -0.15284  -0.66309
-20.47559  -0.12887  -0.66954  -0.12887  -0.66954
-20.42553  -0.11641  -0.67537  -0.11641  -0.67537
-20.37547  -0.13405  -0.68208  -0.13405  -0.68208
-20.32541  -0.19748  -0.69196  -0.19748  -0.69196
-20.27534  -0.31439  -0.70770  -0.31439  -0.70770
-20.22528  -0.47926  -0.73170  -0.47926  -0.73170
-20.17522  -0.67132  -0.76530  -0.67132  -0.76530
-20.12516  -0.85891  -0.80830  -0.85891  -0.80830
-20.07509  -1.00936  -0.85883  -1.00936  -0.85883
-20.02503  -1.09826  -0.91382  -1.09826  -0.91382
-19.97497  -1.11299  -0.96953  -1.11299  -0.96953
-19.92491  -1.05163  -1.02218  -1.05163  -1.02218
-19.87484  -0.92242  -1.06836  -0.92242  -1.06836
-19.82478  -0.74496  -1.10566  -0.74496  -1.10566
-19.77472  -0.54884  -1.13313  -0.54884  -1.13313
-19.72466  -0.36616  -1.15146  -0.36616  -1.15146
-19.67459  -0.22153  -1.16255  -0.22153  -1.16255
-19.62453  -0.12641  -1.16888  -0.12641  -1.16888
-19.57447  -0.08153  -1.17296  -0.08153  -1.17296
-19.52441  -0.08402  -1.17717  -0.08402  -1.17717
-19.47434  -0.13252  -1.18380  -0.13252  -1.18380
-19.42428  -0.22573  -1.19510  -0.22573  -1.19510
-19.37422  -0.35508  -1.21288  -0.35508  -1.21288
-19.32416  -0.49763  -1.23779  -0.49763  -1.23779
-19.27409  -0.61720  -1.26869  -0.61720  -1.26869
-19.22403  -0.67698  -1.30258  -0.67698  -1.30258
-19.17397  -0.65778  -1.33551  -0.65778  -1.33551
-19.12390  -0.56963  -1.36403  -0.56963  -1.36403
-19.07384  -0.44839  -1.38648  -0.44839  -1.38648
-19.02378  -0.34009  -1.40350  -0.34009  -1.40350
-18.97372  -0.28329  -1.41769  -0.28329  -1.41769
-18.92365  -0.29846  -1.43263  -0.29846  -1.43263
-18.87359  -0.38502  -1.45190  -0.38502  -1.45190
-18.82353  -0.52247  -1.47806  -0.52247  -1.47806
-18.77347  -0.67386  -1.51179  -0.67386  -1.51179
-18.72340  -0.79382  -1.55153  -0.79382  -1.55153
-18.67334  -0.84253  -1.59371  -0.84253  -1.59371
-18.62328  -0.80135  -1.63383  -0.80135  -1.63383
-18.57322  -0.68097  -1.66792  -0.68097  -1.66792
-18.52315  -0.51590  -1.69375  -0.51590  -1.69375
-18.47309  -0.34784  -1.71116  -0.34784  -1.71116
-18.42303  -0.20849  -1.72160  -0.20849  -1.72160
-18.37297  -0.11126  -1.72717  -0.11126  -1.72717
-18.32290  -0.05387  -1.72987  -0.05387  -1.72987
-18.27284  -0.02672  -1.73121  -0.02672  -1.73121
-18.22278  -0.02092  -1.73225  -0.02092  -1.73225
-18.17272  -0.03236  -1.73387  -0.03236  -1.73387
-18.12265  -0.06142  -1.73695  -0.06142  -1.73695
-18.07259  -0.10967  -1.74244  -0.10967  -1.74244
-18.02253  -0.17497  -1.75120  -0.17497  -1.75120
-17.97247  -0.24826  -1.76363  -0.24826  -1.76363
-17.92240  -0.31530  -1.77941  -0.31530  -1.77941
-17.87234  -0.36457  -1.79766  -0.36457  -1.79766
-17.82228  -0.39789  -1.81758  -0.39789  -1.81758
-17.77222  -0.43621  -1.83942  -0.43621  -1.83942
-17.72215  -0.51431  -1.86517  -0.51431  -1.86517
-17.67209  -0.66487  -1.89845  -0.66487  -1.89845
-17.62203  -0.89860  -1.94344  -0.89860  -1.94344
-17.57196  -1.19078  -2.00305  -1.19078  -2.00305
-17.52190  -1.48166  -2.07723  -1.48166  -2.07723
-17.47184  -1.69374  -2.16202  -1.69374  -2.16202
-17.42178  -1.76101  -2.25018  -1.76101  -2.25018
-17.37171  -1.65819  -2.33319  -1.65819  -2.33319
-17.32165  -1.41373  -2.40397  -1.41373  -2.40397
-17.27159  -1.09735  -2.45891  -1.09735  -2.45891
-17.22153  -0.78783  -2.49835  -0.78783  -2.49835
-17.17146  -0.54032  -2.52540  -0.54032  -2.52540
-17.12140  -0.37143  -2.54399  -0.37143  -2.54399
-17.07134  -0.26662  -2.55734  -0.26662  -2.55734
-17.02128  -0.19971  -2.56734  -0.19971  -2.56734
-16.97121  -0.14994  -2.57484  -0.14994  -2.57484
-16.92115  -0.10888  -2.58029  -0.10888  -2.58029
-16.87109  -0.07849  -2.58422  -0.07849  -2.58422
-16.82103  -0.06607  -2.58753  -0.06607  -2.58753
-16.77096  -0.08074  -2.59157  -0.08074  -2.59157
-16.72090  -0.13112  -2.59814  -0.13112  -2.59814
-16.67084  -0.22176  -2.60924  -0.22176  -2.60924
-16.62078  -0.34765  -2.62664  -0.34765  -2.62664
-16.57071  -0.49049  -2.65120  -0.49049  -2.65120
-16.52065  -0.62238  -2.68236  -0.62238  -2.68236
-16.47059  -0.71814  -2.71831  -0.71814  -2.71831
-16.42053  -0.76889  -2.75680  -0.76889  -2.75680
-16.37046  -0.78496  -2.79610  -0.78496  -2.79610
-16.32040  -0.78407  -2.83535  -0.78407  -2.83535
-16.27034  -0.77405  -2.87410  -0.77405  -2.87410
-16.22028  -0.74584  -2.91144  -0.74584  -2.91144
-16.17021  -0.68298  -2.94563  -0.68298  -2.94563
-16.12015  -0.57864  -2.97460  -0.57864  -2.97460
-16.07009  -0.44474  -2.99687  -0.44474  -2.99687
-16.02003  -0.30636  -3.01220  -0.30636  -3.01220
-15.96996  -0.18784  -3.02161  -0.18784  -3.02161
-15.91990  -0.10214  -3.02672  -0.10214  -3.02672
-15.86984  -0.04916  -3.02918  -0.04916  -3.02918
-15.81977  -0.02093  -3.03023  -0.02093  -3.03023
-15.76971  -0.00790  -3.03062  -0.00790  -3.03062
-15.71965  -0.00275  -3.03076  -0.00275  -3.03076
-15.66959  -0.00130  -3.03083  -0.00130  -3.03083
-15.61952  -0.00206  -3.03093  -0.00206  -3.03093
-15.56946  -0.00584  -3.03122  -0.00584  -3.03122
-15.51940  -0.01595  -3.03202  -0.01595  -3.03202
-15.46934  -0.03877  -3.03396  -0.03877  -3.03396
-15.41927  -0.08333  -3.03813  -0.08333  -3.03813
-15.36921  -0.15848  -3.04607  -0.15848  -3.04607
-15.31915  -0.26709  -3.05944  -0.26709  -3.05944
-15.26909  -0.40023  -3.07947  -0.40023  -3.07947
-15.21902  -0.53673  -3.10634  -0.53673  -3.10634
-15.16896  -0.65216  -3.13899  -0.65216  -3.13899
-15.11890  -0.73371  -3.17572  -0.73371  -3.17572
-15.06884  -0.78938  -3.21524  -0.78938  -3.21524
-15.01877  -0.84147  -3.25737  -0.84147  -3.25737
-14.96871  -0.90654  -3.30275  -0.90654  -3.30275
-14.91865  -0.97767  -3.35170  -0.97767  -3.35170
-14.86859  -1.02541  -3.40303  -1.02541  -3.40303
-14.81852  -1.01813  -3.45400  -1.01813  -3.45400
-14.76846  -0.94569  -3.50135  -0.94569  -3.50135
-14.71840  -0.82701  -3.54275  -0.82701  -3.54275
-14.66834  -0.69691  -3.57764  -0.69691  -3.57764
-14.61827  -0.58475  -3.60691  -0.58475  -3.60691
-14.56821  -0.50173  -3.63203  -0.50173  -3.63203
-14.51815  -0.44339  -3.65423  -0.44339  -3.65423
-14.46809  -0.39983  -3.67424  -0.39983  -3.67424
-14.41802  -0.36314  -3.69242  -0.36314  -3.69242
-14.36796  -0.32806  -3.70885  -0.32806  -3.70885
-14.31790  -0.29025  -3.72338  -0.29025  -3.72338
-14.26783  -0.24677  -3.73573  -0.24677  -3.73573
-14.21777  -0.19918  -3.74570  -0.19918  -3.74570
-14.16771  -0.15550  -3.75349  -0.15550  -3.75349
-14.11765  -0.12903  -3.75995  -0.12903  -3.75995
-14.06758  -0.13436  -3.76667  -0.13436  -3.76667
-14.01752  -0.18232  -3.77580  -0.18232  -3.77580
-13.96746  -0.27426  -3.78953  -0.27426  -3.78953
-13.91740  -0.39734  -3.80942  -0.39734  -3.80942
-13.86733  -0.52476  -3.83569  -0.52476  -3.83569
-13.81727  -0.62475  -3.86697  -0.62475  -3.86697
-13.76721  -0.67645  -3.90084  -0.67645  -3.90084
-13.71715  -0.68229  -3.93499  -0.68229  -3.93499
-13.66708  -0.66618  -3.96834  -0.66618  -3.96834
-13.61702  -0.65636  -4.00120  -0.65636  -4.00120
-13.56696  -0.66587  -4.03454  -0.66587  -4.03454
-13.51690  -0.68686  -4.06892  -0.68686  -4.06892
-13.46683  -0.70399  -4.10417  -0.70399  -4.10417
-13.41677  -0.71535  -4.13998  -0.71535  -4.13998
-13.36671  -0.74122  -4.17709  -0.74122  -4.17709
-13.31665  -0.81038  -4.21766  -0.81038  -4.21766
-13.26658  -0.93246  -4.26434  -0.93246  -4.26434
-13.21652  -1.07838  -4.31833  -1.07838  -4.31833
-13.16646  -1.18733  -4.37777  -1.18733  -4.37777
-13.11640  -1.19900  -4.43779  -1.19900  -4.43779
-13.06633  -1.08933  -4.49233  -1.08933  -4.49233
-13.01627  -0.88508  -4.53664  -0.88508  -4.53664
-12.96621  -0.64909  -4.56913  -0.64909  -4.56913
-12.91615  -0.45025  -4.59167  -0.45025  -4.59167
-12.86608  -0.33925  -4.60866  -0.33925  -4.60866
-12.81602  -0.33984  -4.62567  -0.33984  -4.62567
-12.76596  -0.45020  -4.64821  -0.45020  -4.64821
-12.71589  -0.64455  -4.68047  -0.64455  -4.68047
-12.66583  -0.87366  -4.72421  -0.87366  -4.72421
-12.61577  -1.07175  -4.77787  -1.07175  -4.77787
-12.56571  -1.17550  -4.83672  -1.17550  -4.83672
-12.51564  -1.14910  -4.89424  -1.14910  -4.89424
-12.46558  -1.00027  -4.94432  -1.00027  -4.94432
-12.41552  -0.77512  -4.98312  -0.77512  -4.98312
-12.36546  -0.53491  -5.00990  -0.53491  -5.00990
-12.31539  -0.32991  -5.02642  -0.32991  -5.02642
-12.26533  -0.18539  -5.03570  -0.18539  -5.03570
-12.21527  -0.10352  -5.04088  -0.10352  -5.04088
-12.16521  -0.07419  -5.04460  -0.07419  -5.04460
-12.11514  -0.08480  -5.04884  -0.08480  -5.04884
-12.06508  -0.12365  -5.05503  -0.12365  -5.05503
-12.01502  -0.17808  -5.06395  -0.17808  -5.06395
-11.96496  -0.23227  -5.07557  -0.23227  -5.07557
-11.91489  -0.26900  -5.08904  -0.26900  -5.08904
-11.86483  -0.27552  -5.10283  -0.27552  -5.10283
-11.81477  -0.24946  -5.11532  -0.24946  -5.11532
-11.76471  -0.20000  -5.12534  -0.20000  -5.12534
-11.71464  -0.14323  -5.13251  -0.14323  -5.13251
-11.66458  -0.09536  -5.13728  -0.09536  -5.13728
-11.61452  -0.06865  -5.14072  -0.06865  -5.14072
-11.56446  -0.07170  -5.14431  -0.07170  -5.14431
-11.51439  -0.11191  -5.14991  -0.11191  -5.14991
-11.46433  -0.19575  -5.15971  -0.19575  -5.15971
-11.41427  -0.32482  -5.17597  -0.32482  -5.17597
-11.36421  -0.48944  -5.20047  -0.48944  -5.20047
-11.31414  -0.66489  -5.23376  -0.66489  -5.23376
-11.26408  -0.81525  -5.27457  -0.81525  -5.27457
-11.21402  -0.90535  -5.31990  -0.90535  -5.31990
-11.16395  -0.91604  -5.36576  -0.91604  -5.36576
-11.11389  -0.85448  -5.40853  -0.85448  -5.40853
-11.06383  -0.75317  -5.44624  -0.75317  -5.44624
-11.01377  -0.65654  -5.47911  -0.65654  -5.47911
-10.96370  -0.60089  -5.50919  -0.60089  -5.50919
-10.91364  -0.59794  -5.53912  -0.59794  -5.53912
-10.86358  -0.63104  -5.57071  -0.63104  -5.57071
-10.81352  -0.66599  -5.60406  -0.66599  -5.60406
-10.76345  -0.66981  -5.63759  -0.66981  -5.63759
-10.71339  -0.62640  -5.66895  -0.62640  -5.66895
-10.66333  -0.54178  -5.69607  -0.54178  -5.69607
-10.61327  -0.43894  -5.71805  -0.43894  -5.71805
-10.56320  -0.34746  -5.73544  -0.34746  -5.73544
-10.51314  -0.29282  -5.75010  -0.29282  -5.75010
-10.46308  -0.28813  -5.76452  -0.28813  -5.76452
-10.41302  -0.32937  -5.78101  -0.32937  -5.78101
-10.36295  -0.39613  -5.80084  -0.39613  -5.80084
-10.31289  -0.45986  -5.82387  -0.45986  -5.82387
-10.26283  -0.49734  -5.84876  -0.49734  -5.84876
-10.21277  -0.50230  -5.87391  -0.50230  -5.87391
-10.16270  -0.48695  -5.89829  -0.48695  -5.89829
-10.11264  -0.47174  -5.92190  -0.47174  -5.92190
-10.06258  -0.47137  -5.94550  -0.47137  -5.94550
-10.01252  -0.48832  -5.96995  -0.48832  -5.96995
 -9.96245  -0.51839  -5.99590  -0.51839  -5.99590
 -9.91239  -0.56146  -6.02401  -0.56146  -6.02401
 -9.86233  -0.62521  -6.05531  -0.62521  -6.05531
 -9.81227  -0.71609  -6.09116  -0.71609  -6.09116
 -9.76220  -0.82467  -6.13244  -0.82467  -6.13244
 -9.71214  -0.91975  -6.17849  -0.91975  -6.17849
 -9.66208  -0.95979  -6.22654  -0.95979  -6.22654
 -9.61202  -0.91611  -6.27240  -0.91611  -6.27240
 -9.56195  -0.79155  -6.31203  -0.79155  -6.31203
 -9.51189  -0.62167  -6.34315  -0.62167  -6.34315
 -9.46183  -0.45964  -6.36616  -0.45964  -6.36616
 -9.41176  -0.35627  -6.38400  -0.35627  -6.38400
 -9.36170  -0.34593  -6.40132  -0.34593  -6.40132
 -9.31164  -0.44004  -6.42334  -0.44004  -6.42334
 -9.26158  -0.62390  -6.45458  -0.62390  -6.45458
 -9.21151  -0.85584  -6.49742  -0.85584  -6.49742
 -9.16145  -1.07387  -6.55118  -1.07387  -6.55118
 -9.11139  -1.21413  -6.61197  -1.21413  -6.61197
 -9.06133  -1.23661  -6.67387  -1.23661  -6.67387
 -9.01126  -1.14367  -6.73113  -1.14367  -6.73113
 -8.96120  -0.97873  -6.78013  -0.97873  -6.78013
 -8.91114  -0.80445  -6.82040  -0.80445  -6.82040
 -8.86108  -0.67360  -6.85412  -0.67360  -6.85412
 -8.81101  -0.60977  -6.88465  -0.60977  -6.88465
 -8.76095  -0.60751  -6.91506  -0.60751  -6.91506
 -8.71089  -0.64743  -6.94748  -0.64743  -6.94748
 -8.66083  -0.71218  -6.98313  -0.71218  -6.98313
 -8.61076  -0.79115  -7.02274  -0.79115  -7.02274
 -8.56070  -0.87389  -7.06648  -0.87389  -7.06648
 -8.51064  -0.94399  -7.11374  -0.94399  -7.11374
 -8.46058  -0.98391  -7.16300  -0.98391  -7.16300
 -8.41051  -0.98787  -7.21246  -0.98787  -7.21246
 -8.36045  -0.96857  -7.26094  -0.96857  -7.26094
 -8.31039  -0.94786  -7.30840  -0.94786  -7.30840
 -8.26033  -0.93764  -7.35534  -0.93764  -7.35534
 -8.21026  -0.92788  -7.40179  -0.92788  -7.40179
 -8.16020  -0.89290  -7.44649  -0.89290  -7.44649
 -8.11014  -0.81079  -7.48708  -0.81079  -7.48708
 -8.06008  -0.68045  -7.52115  -0.68045  -7.52115
 -8.01001  -0.52374  -7.54737  -0.52374  -7.54737
 -7.95995  -0.37291  -7.56603  -0.37291  -7.56603
 -7.90989  -0.25396  -7.57875  -0.25396  -7.57875
 -7.85982  -0.17686  -7.58760  -0.17686  -7.58760
 -7.80976  -0.13698  -7.59446  -0.13698  -7.59446
 -7.75970  -0.12383  -7.60066  -0.12383  -7.60066
 -7.70964  -0.13017  -7.60718  -0.13017  -7.60718
 -7.65957  -0.15572  -7.61497  -0.15572  -7.61497
 -7.60951  -0.20410  -7.62519  -0.20410  -7.62519
 -7.55945  -0.27573  -7.63899  -0.27573  -7.63899
 -7.50939  -0.36338  -7.65719  -0.36338  -7.65719
 -7.45932  -0.45564  -7.68000  -0.45564  -7.68000
 -7.40926  -0.54824  -7.70744  -0.54824  -7.70744
 -7.35920  -0.65456  -7.74021  -0.65456  -7.74021
 -7.30914  -0.80321  -7.78042  -0.80321  -7.78042
 -7.25907  -1.01810  -7.83139  -1.01810  -7.83139
 -7.20901  -1.29165  -7.89605  -1.29165  -7.89605
 -7.15895  -1.57232  -7.97477  -1.57232  -7.97477
 -7.10889  -1.78116  -8.06394  -1.78116  -8.06394
 -7.05882  -1.85069  -8.15659  -1.85069  -8.15659
 -7.00876  -1.76000  -8.24470  -1.76000  -8.24470
 -6.95870  -1.54187  -8.32189  -1.54187  -8.32189
 -6.90864  -1.25947  -8.38494  -1.25947  -8.38494
 -6.85857  -0.97287  -8.43364  -0.97287  -8.43364
 -6.80851  -0.71837  -8.46961  -0.71837  -8.46961
 -6.75845  -0.50827  -8.49505  -0.50827  -8.49505
 -6.70839  -0.34197  -8.51217  -0.34197  -8.51217
 -6.65832  -0.21576  -8.52297  -0.21576  -8.52297
 -6.60826  -0.12591  -8.52928  -0.12591  -8.52928
 -6.55820  -0.06785  -8.53267  -0.06785  -8.53267
 -6.50814  -0.03583  -8.53447  -0.03583  -8.53447
 -6.45807  -0.02471  -8.53571  -0.02471  -8.53571
 -6.40801  -0.03248  -8.53733  -0.03248  -8.53733
 -6.35795  -0.06159  -8.54041  -0.06159  -8.54041
 -6.30788  -0.11778  -8.54631  -0.11778  -8.54631
 -6.25782  -0.20638  -8.55664  -0.20638  -8.55664
 -6.20776  -0.32753  -8.57304  -0.32753  -8.57304
 -6.15770  -0.47301  -8.59672  -0.47301  -8.59672
 -6.10763  -0.62676  -8.62810  -0.62676  -8.62810
 -6.05757  -0.76867  -8.66658  -0.76867  -8.66658
 -6.00751  -0.87913  -8.71059  -0.87913  -8.71059
 -5.95745  -0.94226  -8.75776  -0.94226  -8.75776
 -5.90738  -0.94883  -8.80526  -0.94883  -8.80526
 -5.85732  -0.90022  -8.85033  -0.90022  -8.85033
 -5.80726  -0.81193  -8.89098  -0.81193  -8.89098
 -5.75720  -0.71221  -8.92663  -0.71221  -8.92663
 -5.70713  -0.63265  -8.95831  -0.63265  -8.95831
 -5.65707  -0.59390  -8.98804  -0.59390  -8.98804
 -5.60701  -0.59492  -9.01782  -0.59492  -9.01782
 -5.55695  -0.61329  -9.04852  -0.61329  -9.04852
 -5.50688  -0.61747  -9.07944  -0.61747  -9.07944
 -5.45682  -0.58378  -9.10866  -0.58378  -9.10866
 -5.40676  -0.50810  -9.13410  -0.50810  -9.13410
 -5.35670  -0.40578  -9.15441  -0.40578  -9.15441
 -5.30663  -0.30163  -9.16951  -0.30163  -9.16951
 -5.25657  -0.21708  -9.18038  -0.21708  -9.18038
 -5.20651  -0.16240  -9.18851  -0.16240  -9.18851
 -5.15645  -0.13694  -9.19537  -0.13694  -9.19537
 -5.10638  -0.13496  -9.20212  -0.13496  -9.20212
 -5.05632  -0.15159  -9.20971  -0.15159  -9.20971
 -5.00626  -0.18472  -9.21896  -0.18472  -9.21896
 -4.95620  -0.23223  -9.23059  -0.23223  -9.23059
 -4.90613  -0.28786  -9.24500  -0.28786  -9.24500
 -4.85607  -0.33991  -9.26201  -0.33991  -9.26201
 -4.80601  -0.37491  -9.28078  -0.37491  -9.28078
 -4.75594  -0.38437  -9.30003  -0.38437  -9.30003
 -4.70588  -0.37000  -9.31855  -0.37000  -9.31855
 -4.65582  -0.34334  -9.33574  -0.34334  -9.33574
 -4.60576  -0.31935  -9.35172  -0.31935  -9.35172
 -4.55569  -0.30803  -9.36715  -0.30803  -9.36715
 -4.50563  -0.30975  -9.38265  -0.30975  -9.38265
 -4.45557  -0.31763  -9.39855  -0.31763  -9.39855
 -4.40551  -0.32421  -9.41478  -0.32421  -9.41478
 -4.35544  -0.32643  -9.43113  -0.32643  -9.43113
 -4.30538  -0.32498  -9.44740  -0.32498  -9.44740
 -4.25532  -0.31977  -9.46340  -0.31977  -9.46340
 -4.20526  -0.30717  -9.47878  -0.30717  -9.47878
 -4.15519  -0.28216  -9.49291  -0.28216  -9.49291
 -4.10513  -0.24322  -9.50508  -0.24322  -9.50508
 -4.05507  -0.19513  -9.51485  -0.19513  -9.51485
 -4.00501  -0.14687  -9.52220  -0.14687  -9.52220
 -3.95494  -0.10669  -9.52755  -0.10669  -9.52755
 -3.90488  -0.07811  -9.53146  -0.07811  -9.53146
 -3.85482  -0.05956  -9.53444  -0.05956  -9.53444
 -3.80476  -0.04689  -9.53679  -0.04689  -9.53679
 -3.75469  -0.03649  -9.53861  -0.03649  -9.53861
 -3.70463  -0.02679  -9.53995  -0.02679  -9.53995
 -3.65457  -0.01802  -9.54086  -0.01802  -9.54086
 -3.60451  -0.01109  -9.54141  -0.01109  -9.54141
 -3.55444  -0.00671  -9.54175  -0.00671  -9.54175
 -3.50438  -0.00525  -9.54201  -0.00525  -9.54201
 -3.45432  -0.00713  -9.54237  -0.00713  -9.54237
 -3.40426  -0.01306  -9.54302  -0.01306  -9.54302
 -3.35419  -0.02390  -9.54422  -0.02390  -9.54422
 -3.30413  -0.03998  -9.54622  -0.03998  -9.54622
 -3.25407  -0.06039  -9.54924  -0.06039  -9.54924
 -3.20401  -0.08276  -9.55338  -0.08276  -9.55338
 -3.15394  -0.10383  -9.55858  -0.10383  -9.55858
 -3.10388  -0.12044  -9.56461  -0.12044  -9.56461
 -3.05382  -0.13012  -9.57113  -0.13012  -9.57113
 -3.00375  -0.13130  -9.57770  -0.13130  -9.57770
 -2.95369  -0.12335  -9.58387  -0.12335  -9.58387
 -2.90363  -0.10706  -9.58923  -0.10706  -9.58923
 -2.85357  -0.08499  -9.59349  -0.08499  -9.59349
 -2.80350  -0.06112  -9.59655  -0.06112  -9.59655
 -2.75344  -0.03952  -9.59853  -0.03952  -9.59853
 -2.70338  -0.02284  -9.59967  -0.02284  -9.59967
 -2.65332  -0.01176  -9.60026  -0.01176  -9.60026
 -2.60325  -0.00540  -9.60053  -0.00540  -9.60053
 -2.55319  -0.00229  -9.60064  -0.00229  -9.60064
 -2.50313  -0.00109  -9.60070  -0.00109  -9.60070
 -2.45307  -0.00099  -9.60075  -0.00099  -9.60075
 -2.40300  -0.00160  -9.60083  -0.00160  -9.60083
 -2.35294  -0.00282  -9.60097  -0.00282  -9.60097
 -2.30288  -0.00451  -9.60120  -0.00451  -9.60120
 -2.25282  -0.00641  -9.60152  -0.00641  -9.60152
 -2.20275  -0.00805  -9.60192  -0.00805  -9.60192
 -2.15269  -0.00893  -9.60237  -0.00893  -9.60237
 -2.10263  -0.00876  -9.60281  -0.00876  -9.60281
 -2.05257  -0.00758  -9.60319  -0.00758  -9.60319
 -2.00250  -0.00580  -9.60348  -0.00580  -9.60348
 -1.95244  -0.00392  -9.60367  -0.00392  -9.60367
 -1.90238  -0.00234  -9.60379  -0.00234  -9.60379
 -1.85232  -0.00123  -9.60385  -0.00123  -9.60385
 -1.80225  -0.00057  -9.60388  -0.00057  -9.60388
 -1.75219  -0.00024  -9.60389  -0.00024  -9.60389
 -1.70213  -0.00009  -9.60390  -0.00009  -9.60390
 -1.65207  -0.00003  -9.60390  -0.00003  -9.60390
 -1.60200  -0.00001  -9.60390  -0.00001  -9.60390
 -1.55194  -0.00000  -9.60390  -0.00000  -9.60390
 -1.50188  -0.00000  -9.60390  -0.00000  -9.60390
 -1.45181  -0.00000  -9.60390  -0.00000  -9.60390
 -1.40175  -0.00000  -9.60390  -0.00000  -9.60390
 -1.35169  -0.00000  -9.60390  -0.00000  -9.60390
 -1.30163  -0.00000  -9.60390  -0.00000  -9.60390
 -1.25156  -0.00000  -9.60390  -0.00000  -9.60390
 -1.20150  -0.00000  -9.60390  -0.00000  -9.60390
 -1.15144  -0.00000  -9.60390  -0.00000  -9.60390
 -1.10138  -0.00000  -9.60390  -0.00000  -9.60390
 -1.05131  -0.00000  -9.60390  -0.00000  -9.60390
 -1.00125  -0.00000  -9.60390  -0.00000  -9.60390
 -0.95119   0.00000  -9.60390   0.00000  -9.60390
 -0.90113   0.00000  -9.60390   0.00000  -9.60390
 -0.85106   0.00000  -9.60390   0.00000  -9.60390
 -0.80100   0.00000  -9.60390   0.00000  -9.60390
 -0.75094   0.00000  -9.60390   0.00000  -9.60390
 -0.70088   0.00000  -9.60390   0.00000  -9.60390
 -0.65081   0.00000  -9.60390   0.00000  -9.60390
 -0.60075   0.00000  -9.60390   0.00000  -9.60390
 -0.55069   0.00000  -9.60390   0.00000  -9.60390
 -0.50063   0.00000  -9.60390   0.00000  -9.60390
 -0.45056   0.00000  -9.60390   0.00000  -9.60390
 -0.40050   0.00000  -9.60390   0.00000  -9.60390
 -0.35044   0.00000  -9.60390   0.00000  -9.60390
 -0.30038   0.00000  -9.60390   0.00000  -9.60390
 -0.25031   0.00000  -9.60390   0.00000  -9.60390
 -0.20025   0.00000  -9.60390   0.00000  -9.60390
 -0.15019   0.00000  -9.60390   0.00000  -9.60390
 -0.10013   0.00000  -9.60390   0.00000  -9.60390
 -0.05006   0.00000  -9.60390   0.00000  -9.60390
 -0.00000   0.00000  -9.60390   0.00000  -9.60390
  0.05006   0.00000  -9.60390   0.00000  -9.60390
  0.10013   0.00000  -9.60390   0.00000  -9.60390
  0.15019   0.00000  -9.60390   0.00000  -9.60390
  0.20025   0.00000  -9.60390   0.00000  -9.60390
  0.25031   0.00000  -9.60390   0.00000  -9.60390
  0.30038   0.00000  -9.60390   0.00000  -9.60390
  0.35044   0.00000  -9.60390   0.00000  -9.60390
  0.40050   0.00000  -9.60390   0.00000  -9.60390
  0.45056   0.00000  -9.60390   0.00000  -9.60390
  0.50063   0.00000  -9.60390   0.00000  -9.60390
  0.55069   0.00000  -9.60390   0.00000  -9.60390
  0.60075   0.00000  -9.60390   0.00000  -9.60390
  0.65081   0.00000  -9.60390   0.00000  -9.60390
  0.70088   0.00000  -9.60390   0.00000  -9.60390
  0.75094   0.00000  -9.60390   0.00000  -9.60390
  0.80100   0.00000  -9.60390   0.00000  -9.60390
  0.85106   0.00000  -9.60390   0.00000  -9.60390
  0.90113   0.00000  -9.60390   0.00000  -9.60390
  0.95119   0.00000  -9.60390   0.00000  -9.60390
  1.00125   0.00000  -9.60390   0.00000  -9.60390
  1.05131   0.00000  -9.60390   0.00000  -9.60390
  1.10138   0.00000  -9.60390   0.00000  -9.60390
  1.15144   0.00000  -9.60390   0.00000  -9.60390
  1.20150   0.00000  -9.60390   0.00000  -9.60390
  1.25156   0.00000  -9.60390   0.00000  -9.60390
  1.30163   0.00000  -9.60390   0.00000  -9.60390
  1.35169   0.00000  -9.60390   0.00000  -9.60390
  1.40175   0.00000  -9.60390   0.00000  -9.60390
  1.45181   0.00000  -9.60390   0.00000  -9.60390
  1.50188   0.00001  -9.60390   0.00001  -9.60390
  1.55194   0.00004  -9.60389   0.00004  -9.60389
  1.60200   0.00017  -9.60389   0.00017  -9.60389
  1.65207   0.00061  -9.60386   0.00061  -9.60386
  1.70213   0.00190  -9.60376   0.00190  -9.60376
  1.75219   0.00523  -9.60350   0.00523  -9.60350
  1.80225   0.01272  -9.60286   0.01272  -9.60286
  1.85232   0.02732  -9.60149   0.02732  -9.60149
  1.90238   0.05187  -9.59890   0.05187  -9.59890
  1.95244   0.08705  -9.59454   0.08705  -9.59454
  2.00250   0.12913  -9.58807   0.12913  -9.58807
  2.05257   0.16932  -9.57960   0.16932  -9.57960
  2.10263   0.19627  -9.56977   0.19627  -9.56977
  2.15269   0.20112  -9.55970   0.20112  -9.55970
  2.20275   0.18219  -9.55058   0.18219  -9.55058
  2.25282   0.14590  -9.54328   0.14590  -9.54328
  2.30288   0.10330  -9.53811   0.10330  -9.53811
  2.35294   0.06471  -9.53487   0.06471  -9.53487
  2.40300   0.03607  -9.53306   0.03607  -9.53306
  2.45307   0.01860  -9.53213   0.01860  -9.53213
  2.50313   0.01100  -9.53158   0.01100  -9.53158
  2.55319   0.01236  -9.53096   0.01236  -9.53096
  2.60325   0.02410  -9.52976   0.02410  -9.52976
  2.65332   0.05058  -9.52722   0.05058  -9.52722
  2.70338   0.09775  -9.52233   0.09775  -9.52233
  2.75344   0.17014  -9.51381   0.17014  -9.51381
  2.80350   0.26696  -9.50045   0.26696  -9.50045
  2.85357   0.37943  -9.48145   0.37943  -9.48145
  2.90363   0.49099  -9.45687   0.49099  -9.45687
  2.95369   0.58083  -9.42779   0.58083  -9.42779
  3.00375   0.62956  -9.39628   0.62956  -9.39628
  3.05382   0.62511  -9.36498   0.62511  -9.36498
  3.10388   0.56744  -9.33657   0.56744  -9.33657
  3.15394   0.46996  -9.31305   0.46996  -9.31305
  3.20401   0.35615  -9.29522   0.35615  -9.29522
  3.25407   0.25185  -9.28261   0.25185  -9.28261
  3.30413   0.17690  -9.27375   0.17690  -9.27375
  3.35419   0.14004  -9.26674   0.14004  -9.26674
  3.40426   0.13876  -9.25980   0.13876  -9.25980
  3.45432   0.16317  -9.25163   0.16317  -9.25163
  3.50438   0.20141  -9.24154   0.20141  -9.24154
  3.55444   0.24476  -9.22929   0.24476  -9.22929
  3.60451   0.29043  -9.21475   0.29043  -9.21475
  3.65457   0.34087  -9.19769   0.34087  -9.19769
  3.70463   0.39995  -9.17766   0.39995  -9.17766
  3.75469   0.46783  -9.15424   0.46783  -9.15424
  3.80476   0.53738  -9.12734   0.53738  -9.12734
  3.85482   0.59379  -9.09761   0.59379  -9.09761
  3.90488   0.61850  -9.06665   0.61850  -9.06665
  3.95494   0.59690  -9.03677   0.59690  -9.03677
  4.00501   0.52653  -9.01041   0.52653  -9.01041
  4.05507   0.42034  -8.98936   0.42034  -8.98936
  4.10513   0.30200  -8.97425   0.30200  -8.97425
  4.15519   0.19575  -8.96445   0.19575  -8.96445
  4.20526   0.11747  -8.95857   0.11747  -8.95857
  4.25532   0.07179  -8.95497   0.07179  -8.95497
  4.30538   0.05473  -8.95223   0.05473  -8.95223
  4.35544   0.05834  -8.94931   0.05834  -8.94931
  4.40551   0.07448  -8.94558   0.07448  -8.94558
  4.45557   0.09785  -8.94068   0.09785  -8.94068
  4.50563   0.12934  -8.93421   0.12934  -8.93421
  4.55569   0.17910  -8.92524   0.17910  -8.92524
  4.60576   0.26622  -8.91191   0.26622  -8.91191
  4.65582   0.41175  -8.89130   0.41175  -8.89130
  4.70588   0.62536  -8.85999   0.62536  -8.85999
  4.75594   0.89183  -8.81535   0.89183  -8.81535
  4.80601   1.16730  -8.75691   1.16730  -8.75691
  4.85607   1.39141  -8.68725   1.39141  -8.68725
  4.90613   1.51082  -8.61162   1.51082  -8.61162
  4.95620   1.50064  -8.53649   1.50064  -8.53649
  5.00626   1.37143  -8.46783   1.37143  -8.46783
  5.05632   1.15982  -8.40977   1.15982  -8.40977
  5.10638   0.91161  -8.36413   0.91161  -8.36413
  5.15645   0.66784  -8.33070   0.66784  -8.33070
  5.20651   0.45838  -8.30775   0.45838  -8.30775
  5.25657   0.30135  -8.29266   0.30135  -8.29266
  5.30663   0.20508  -8.28240   0.20508  -8.28240
  5.35670   0.16986  -8.27389   0.16986  -8.27389
  5.40676   0.18849  -8.26446   0.18849  -8.26446
  5.45682   0.24573  -8.25216   0.24573  -8.25216
  5.50688   0.31886  -8.23619   0.31886  -8.23619
  5.55695   0.38262  -8.21704   0.38262  -8.21704
  5.60701   0.41894  -8.19606   0.41894  -8.19606
  5.65707   0.42745  -8.17466   0.42745  -8.17466
  5.70713   0.42911  -8.15318   0.42911  -8.15318
  5.75720   0.45913  -8.13020   0.45913  -8.13020
  5.80726   0.55178  -8.10257   0.55178  -8.10257
  5.85732   0.72470  -8.06629   0.72470  -8.06629
  5.90738   0.97070  -8.01770   0.97070  -8.01770
  5.95745   1.26066  -7.95459   1.26066  -7.95459
  6.00751   1.55562  -7.87671   1.55562  -7.87671
  6.05757   1.82097  -7.78555   1.82097  -7.78555
  6.10763   2.03391  -7.68372   2.03391  -7.68372
  6.15770   2.18170  -7.57450   2.18170  -7.57450
  6.20776   2.25677  -7.46152   2.25677  -7.46152
  6.25782   2.25701  -7.34853   2.25701  -7.34853
  6.30788   2.19127  -7.23883   2.19127  -7.23883
  6.35795   2.08048  -7.13468   2.08048  -7.13468
  6.40801   1.94770  -7.03717   1.94770  -7.03717
  6.45807   1.80318  -6.94690   1.80318  -6.94690
  6.50814   1.63877  -6.86486   1.63877  -6.86486
  6.55820   1.43880  -6.79283   1.43880  -6.79283
  6.60826   1.19874  -6.73281   1.19874  -6.73281
  6.65832   0.93616  -6.68595   0.93616  -6.68595
  6.70839   0.68529  -6.65164   0.68529  -6.65164
  6.75845   0.48040  -6.62759   0.48040  -6.62759
  6.80851   0.34004  -6.61057   0.34004  -6.61057
  6.85857   0.26113  -6.59749   0.26113  -6.59749
  6.90864   0.22406  -6.58628   0.22406  -6.58628
  6.95870   0.20409  -6.57606   0.20409  -6.57606
  7.00876   0.18245  -6.56693   0.18245  -6.56693
  7.05882   0.15225  -6.55930   0.15225  -6.55930
  7.10889   0.11800  -6.55340   0.11800  -6.55340
  7.15895   0.09139  -6.54882   0.09139  -6.54882
  7.20901   0.08732  -6.54445   0.08732  -6.54445
  7.25907   0.12191  -6.53835   0.12191  -6.53835
  7.30914   0.21078  -6.52779   0.21078  -6.52779
  7.35920   0.36380  -6.50958   0.36380  -6.50958
  7.40926   0.57603  -6.48074   0.57603  -6.48074
  7.45932   0.82027  -6.43968   0.82027  -6.43968
  7.50939   1.05010  -6.38711   1.05010  -6.38711
  7.55945   1.21683  -6.32619   1.21683  -6.32619
  7.60951   1.29242  -6.26149   1.29242  -6.26149
  7.65957   1.28334  -6.19724   1.28334  -6.19724