ESCALE ; pCOOP file generated by LOBSTER. Energy is shifted such that the Fermi level lies at 0 eV.
         2          1        802  -6.60966e+00   3.34905e+01   1.54679e+01 
Average
No.1:C1->C2(1.5457814950700495)
-22.07760   0.00000   0.00538   0.00000   0.00538
-22.02753   0.00804   0.00579   0.00804   0.00579
-21.97747   0.00671   0.00612   0.00671   0.00612
-21.92741   0.00514   0.00638   0.00514   0.00638
-21.87735   0.00395   0.00658   0.00395   0.00658
-21.82728   0.00369   0.00676   0.00369   0.00676
-21.77722   0.00473   0.00700   0.00473   0.00700
-21.72716   0.00718   0.00736   0.00718   0.00736
-21.67710   0.01078   0.00790   0.01078   0.00790
-21.62703   0.01486   0.00864   0.01486   0.00864
-21.57697   0.01844   0.00956   0.01844   0.00956
-21.52691   0.02059   0.01060   0.02059   0.01060
-21.47685   0.02078   0.01164   0.02078   0.01164
-21.42678   0.01912   0.01259   0.01912   0.01259
-21.37672   0.01615   0.01340   0.01615   0.01340
-21.32666   0.01262   0.01403   0.01262   0.01403
-21.27660   0.00915   0.01449   0.00915   0.01449
-21.22653   0.00615   0.01480   0.00615   0.01480
-21.17647   0.00381   0.01499   0.00381   0.01499
-21.12641   0.00216   0.01510   0.00216   0.01510
-21.07635   0.00113   0.01515   0.00113   0.01515
-21.02628   0.00057   0.01518   0.00057   0.01518
-20.97622   0.00038   0.01520   0.00038   0.01520
-20.92616   0.00046   0.01522   0.00046   0.01522
-20.87610   0.00082   0.01527   0.00082   0.01527
-20.82603   0.00147   0.01534   0.00147   0.01534
-20.77597   0.00236   0.01546   0.00236   0.01546
-20.72591   0.00336   0.01563   0.00336   0.01563
-20.67584   0.00423   0.01584   0.00423   0.01584
-20.62578   0.00471   0.01607   0.00471   0.01607
-20.57572   0.00467   0.01631   0.00467   0.01631
-20.52566   0.00417   0.01652   0.00417   0.01652
-20.47559   0.00354   0.01669   0.00354   0.01669
-20.42553   0.00324   0.01686   0.00324   0.01686
-20.37547   0.00380   0.01705   0.00380   0.01705
-20.32541   0.00568   0.01733   0.00568   0.01733
-20.27534   0.00909   0.01779   0.00909   0.01779
-20.22528   0.01388   0.01848   0.01388   0.01848
-20.17522   0.01946   0.01945   0.01946   0.01945
-20.12516   0.02491   0.02070   0.02491   0.02070
-20.07509   0.02929   0.02217   0.02929   0.02217
-20.02503   0.03189   0.02376   0.03189   0.02376
-19.97497   0.03233   0.02538   0.03233   0.02538
-19.92491   0.03057   0.02691   0.03057   0.02691
-19.87484   0.02683   0.02826   0.02683   0.02826
-19.82478   0.02167   0.02934   0.02167   0.02934
-19.77472   0.01597   0.03014   0.01597   0.03014
-19.72466   0.01066   0.03067   0.01066   0.03067
-19.67459   0.00646   0.03100   0.00646   0.03100
-19.62453   0.00371   0.03118   0.00371   0.03118
-19.57447   0.00246   0.03131   0.00246   0.03131
-19.52441   0.00263   0.03144   0.00263   0.03144
-19.47434   0.00424   0.03165   0.00424   0.03165
-19.42428   0.00726   0.03201   0.00726   0.03201
-19.37422   0.01143   0.03259   0.01143   0.03259
-19.32416   0.01602   0.03339   0.01602   0.03339
-19.27409   0.01988   0.03438   0.01988   0.03438
-19.22403   0.02180   0.03548   0.02180   0.03548
-19.17397   0.02119   0.03654   0.02119   0.03654
-19.12390   0.01838   0.03746   0.01838   0.03746
-19.07384   0.01452   0.03818   0.01452   0.03818
-19.02378   0.01111   0.03874   0.01111   0.03874
-18.97372   0.00942   0.03921   0.00942   0.03921
-18.92365   0.01010   0.03972   0.01010   0.03972
-18.87359   0.01310   0.04037   0.01310   0.04037
-18.82353   0.01773   0.04126   0.01773   0.04126
-18.77347   0.02275   0.04240   0.02275   0.04240
-18.72340   0.02664   0.04373   0.02664   0.04373
-18.67334   0.02812   0.04514   0.02812   0.04514
-18.62328   0.02662   0.04647   0.02662   0.04647
-18.57322   0.02253   0.04760   0.02253   0.04760
-18.52315   0.01702   0.04845   0.01702   0.04845
-18.47309   0.01144   0.04903   0.01144   0.04903
-18.42303   0.00685   0.04937   0.00685   0.04937
-18.37297   0.00365   0.04955   0.00365   0.04955
-18.32290   0.00177   0.04964   0.00177   0.04964
-18.27284   0.00089   0.04969   0.00089   0.04969
-18.22278   0.00073   0.04972   0.00073   0.04972
-18.17272   0.00117   0.04978   0.00117   0.04978
-18.12265   0.00224   0.04989   0.00224   0.04989
-18.07259   0.00401   0.05009   0.00401   0.05009
-18.02253   0.00641   0.05041   0.00641   0.05041
-17.97247   0.00911   0.05087   0.00911   0.05087
-17.92240   0.01163   0.05145   0.01163   0.05145
-17.87234   0.01357   0.05213   0.01357   0.05213
-17.82228   0.01509   0.05289   0.01509   0.05289
-17.77222   0.01705   0.05374   0.01705   0.05374
-17.72215   0.02080   0.05478   0.02080   0.05478
-17.67209   0.02755   0.05616   0.02755   0.05616
-17.62203   0.03757   0.05804   0.03757   0.05804
-17.57196   0.04968   0.06053   0.04968   0.06053
-17.52190   0.06139   0.06360   0.06139   0.06360
-17.47184   0.06958   0.06709   0.06958   0.06709
-17.42178   0.07173   0.07068   0.07173   0.07068
-17.37171   0.06700   0.07403   0.06700   0.07403
-17.32165   0.05671   0.07687   0.05671   0.07687
-17.27159   0.04371   0.07906   0.04371   0.07906
-17.22153   0.03113   0.08062   0.03113   0.08062
-17.17146   0.02113   0.08168   0.02113   0.08168
-17.12140   0.01434   0.08239   0.01434   0.08239
-17.07134   0.01015   0.08290   0.01015   0.08290
-17.02128   0.00751   0.08328   0.00751   0.08328
-16.97121   0.00560   0.08356   0.00560   0.08356
-16.92115   0.00406   0.08376   0.00406   0.08376
-16.87109   0.00295   0.08391   0.00295   0.08391
-16.82103   0.00254   0.08404   0.00254   0.08404
-16.77096   0.00319   0.08420   0.00319   0.08420
-16.72090   0.00527   0.08446   0.00527   0.08446
-16.67084   0.00896   0.08491   0.00896   0.08491
-16.62078   0.01408   0.08561   0.01408   0.08561
-16.57071   0.01992   0.08661   0.01992   0.08661
-16.52065   0.02539   0.08788   0.02539   0.08788
-16.47059   0.02955   0.08936   0.02955   0.08936
-16.42053   0.03207   0.09097   0.03207   0.09097
-16.37046   0.03339   0.09264   0.03339   0.09264
-16.32040   0.03415   0.09435   0.03415   0.09435
-16.27034   0.03448   0.09607   0.03448   0.09607
-16.22028   0.03382   0.09777   0.03382   0.09777
-16.17021   0.03134   0.09934   0.03134   0.09934
-16.12015   0.02674   0.10067   0.02674   0.10067
-16.07009   0.02063   0.10171   0.02063   0.10171
-16.02003   0.01424   0.10242   0.01424   0.10242
-15.96996   0.00874   0.10286   0.00874   0.10286
-15.91990   0.00475   0.10310   0.00475   0.10310
-15.86984   0.00229   0.10321   0.00229   0.10321
-15.81977   0.00097   0.10326   0.00097   0.10326
-15.76971   0.00037   0.10328   0.00037   0.10328
-15.71965   0.00013   0.10328   0.00013   0.10328
-15.66959   0.00006   0.10329   0.00006   0.10329
-15.61952   0.00010   0.10329   0.00010   0.10329
-15.56946   0.00029   0.10331   0.00029   0.10331
-15.51940   0.00080   0.10335   0.00080   0.10335
-15.46934   0.00193   0.10344   0.00193   0.10344
-15.41927   0.00415   0.10365   0.00415   0.10365
-15.36921   0.00789   0.10405   0.00789   0.10405
-15.31915   0.01326   0.10471   0.01326   0.10471
-15.26909   0.01978   0.10570   0.01978   0.10570
-15.21902   0.02631   0.10702   0.02631   0.10702
-15.16896   0.03145   0.10859   0.03145   0.10859
-15.11890   0.03438   0.11031   0.03438   0.11031
-15.06884   0.03533   0.11208   0.03533   0.11208
-15.01877   0.03545   0.11386   0.03545   0.11386
-14.96871   0.03592   0.11565   0.03592   0.11565
-14.91865   0.03702   0.11751   0.03702   0.11751
-14.86859   0.03800   0.11941   0.03800   0.11941
-14.81852   0.03771   0.12130   0.03771   0.12130
-14.76846   0.03555   0.12308   0.03555   0.12308
-14.71840   0.03191   0.12467   0.03191   0.12467
-14.66834   0.02780   0.12607   0.02780   0.12607
-14.61827   0.02414   0.12728   0.02414   0.12728
-14.56821   0.02125   0.12834   0.02125   0.12834
-14.51815   0.01895   0.12929   0.01895   0.12929
-14.46809   0.01694   0.13014   0.01694   0.13014
-14.41802   0.01504   0.13089   0.01504   0.13089
-14.36796   0.01319   0.13155   0.01319   0.13155
-14.31790   0.01133   0.13212   0.01133   0.13212
-14.26783   0.00941   0.13259   0.00941   0.13259
-14.21777   0.00748   0.13296   0.00748   0.13296
-14.16771   0.00582   0.13325   0.00582   0.13325
-14.11765   0.00489   0.13350   0.00489   0.13350
-14.06758   0.00523   0.13376   0.00523   0.13376
-14.01752   0.00727   0.13412   0.00727   0.13412
-13.96746   0.01105   0.13468   0.01105   0.13468
-13.91740   0.01608   0.13548   0.01608   0.13548
-13.86733   0.02131   0.13655   0.02131   0.13655
-13.81727   0.02552   0.13783   0.02552   0.13783
-13.76721   0.02794   0.13923   0.02794   0.13923
-13.71715   0.02876   0.14067   0.02876   0.14067
-13.66708   0.02899   0.14212   0.02899   0.14212
-13.61702   0.02971   0.14360   0.02971   0.14360
-13.56696   0.03126   0.14517   0.03126   0.14517
-13.51690   0.03304   0.14682   0.03304   0.14682
-13.46683   0.03417   0.14853   0.03417   0.14853
-13.41677   0.03453   0.15026   0.03453   0.15026
-13.36671   0.03511   0.15202   0.03511   0.15202
-13.31665   0.03736   0.15389   0.03736   0.15389
-13.26658   0.04193   0.15599   0.04193   0.15599
-13.21652   0.04769   0.15838   0.04769   0.15838
-13.16646   0.05204   0.16098   0.05204   0.16098
-13.11640   0.05233   0.16360   0.05233   0.16360
-13.06633   0.04746   0.16598   0.04746   0.16598
-13.01627   0.03855   0.16791   0.03855   0.16791
-12.96621   0.02832   0.16933   0.02832   0.16933
-12.91615   0.01980   0.17032   0.01980   0.17032
-12.86608   0.01527   0.17108   0.01527   0.17108
-12.81602   0.01585   0.17188   0.01585   0.17188
-12.76596   0.02157   0.17296   0.02157   0.17296
-12.71589   0.03132   0.17452   0.03132   0.17452
-12.66583   0.04284   0.17667   0.04284   0.17667
-12.61577   0.05295   0.17932   0.05295   0.17932
-12.56571   0.05849   0.18225   0.05849   0.18225
-12.51564   0.05756   0.18513   0.05756   0.18513
-12.46558   0.05044   0.18765   0.05044   0.18765
-12.41552   0.03933   0.18962   0.03933   0.18962
-12.36546   0.02730   0.19099   0.02730   0.19099
-12.31539   0.01693   0.19184   0.01693   0.19184
-12.26533   0.00957   0.19232   0.00957   0.19232
-12.21527   0.00537   0.19259   0.00537   0.19259
-12.16521   0.00386   0.19278   0.00386   0.19278
-12.11514   0.00442   0.19300   0.00442   0.19300
-12.06508   0.00644   0.19332   0.00644   0.19332
-12.01502   0.00928   0.19379   0.00928   0.19379
-11.96496   0.01210   0.19439   0.01210   0.19439
-11.91489   0.01401   0.19509   0.01401   0.19509
-11.86483   0.01435   0.19581   0.01435   0.19581
-11.81477   0.01299   0.19646   0.01299   0.19646
-11.76471   0.01041   0.19698   0.01041   0.19698
-11.71464   0.00743   0.19736   0.00743   0.19736
-11.66458   0.00488   0.19760   0.00488   0.19760
-11.61452   0.00334   0.19777   0.00334   0.19777
-11.56446   0.00318   0.19793   0.00318   0.19793
-11.51439   0.00469   0.19816   0.00469   0.19816
-11.46433   0.00813   0.19857   0.00813   0.19857
-11.41427   0.01362   0.19925   0.01362   0.19925
-11.36421   0.02084   0.20029   0.02084   0.20029
-11.31414   0.02884   0.20174   0.02884   0.20174
-11.26408   0.03608   0.20354   0.03608   0.20354
-11.21402   0.04096   0.20559   0.04096   0.20559
-11.16395   0.04241   0.20772   0.04241   0.20772
-11.11389   0.04054   0.20975   0.04054   0.20975
-11.06383   0.03669   0.21158   0.03669   0.21158
-11.01377   0.03290   0.21323   0.03290   0.21323
-10.96370   0.03092   0.21478   0.03092   0.21478
-10.91364   0.03132   0.21635   0.03132   0.21635
-10.86358   0.03326   0.21801   0.03326   0.21801
-10.81352   0.03500   0.21976   0.03500   0.21976
-10.76345   0.03491   0.22151   0.03491   0.22151
-10.71339   0.03226   0.22313   0.03226   0.22313
-10.66333   0.02751   0.22451   0.02751   0.22451
-10.61327   0.02193   0.22560   0.02193   0.22560
-10.56320   0.01705   0.22646   0.01705   0.22646
-10.51314   0.01412   0.22716   0.01412   0.22716
-10.46308   0.01372   0.22785   0.01372   0.22785
-10.41302   0.01560   0.22863   0.01560   0.22863
-10.36295   0.01875   0.22957   0.01875   0.22957
-10.31289   0.02180   0.23066   0.02180   0.23066
-10.26283   0.02364   0.23184   0.02364   0.23184
-10.21277   0.02401   0.23305   0.02401   0.23305
-10.16270   0.02350   0.23422   0.02350   0.23422
-10.11264   0.02309   0.23538   0.02309   0.23538
-10.06258   0.02347   0.23655   0.02347   0.23655
-10.01252   0.02471   0.23779   0.02471   0.23779
 -9.96245   0.02658   0.23912   0.02658   0.23912
 -9.91239   0.02908   0.24058   0.02908   0.24058
 -9.86233   0.03264   0.24221   0.03264   0.24221
 -9.81227   0.03762   0.24410   0.03762   0.24410
 -9.76220   0.04354   0.24628   0.04354   0.24628
 -9.71214   0.04878   0.24872   0.04878   0.24872
 -9.66208   0.05112   0.25128   0.05112   0.25128
 -9.61202   0.04899   0.25373   0.04899   0.25373
 -9.56195   0.04249   0.25586   0.04249   0.25586
 -9.51189   0.03349   0.25753   0.03349   0.25753
 -9.46183   0.02480   0.25877   0.02480   0.25877
 -9.41176   0.01917   0.25973   0.01917   0.25973
 -9.36170   0.01845   0.26066   0.01845   0.26066
 -9.31164   0.02326   0.26182   0.02326   0.26182
 -9.26158   0.03281   0.26347   0.03281   0.26347
 -9.21151   0.04488   0.26571   0.04488   0.26571
 -9.16145   0.05620   0.26853   0.05620   0.26853
 -9.11139   0.06343   0.27170   0.06343   0.27170
 -9.06133   0.06447   0.27493   0.06447   0.27493
 -9.01126   0.05950   0.27791   0.05950   0.27791
 -8.96120   0.05080   0.28045   0.05080   0.28045
 -8.91114   0.04168   0.28254   0.04168   0.28254
 -8.86108   0.03487   0.28428   0.03487   0.28428
 -8.81101   0.03162   0.28587   0.03162   0.28587
 -8.76095   0.03166   0.28745   0.03166   0.28745
 -8.71089   0.03401   0.28915   0.03401   0.28915
 -8.66083   0.03780   0.29105   0.03780   0.29105
 -8.61076   0.04246   0.29317   0.04246   0.29317
 -8.56070   0.04741   0.29554   0.04741   0.29554
 -8.51064   0.05169   0.29813   0.05169   0.29813
 -8.46058   0.05432   0.30085   0.05432   0.30085
 -8.41051   0.05499   0.30361   0.05499   0.30361
 -8.36045   0.05441   0.30633   0.05441   0.30633
 -8.31039   0.05378   0.30902   0.05378   0.30902
 -8.26033   0.05370   0.31171   0.05370   0.31171
 -8.21026   0.05351   0.31439   0.05351   0.31439
 -8.16020   0.05170   0.31698   0.05170   0.31698
 -8.11014   0.04702   0.31933   0.04702   0.31933
 -8.06008   0.03943   0.32131   0.03943   0.32131
 -8.01001   0.03021   0.32282   0.03021   0.32282
 -7.95995   0.02125   0.32388   0.02125   0.32388
 -7.90989   0.01409   0.32459   0.01409   0.32459
 -7.85982   0.00934   0.32505   0.00934   0.32505
 -7.80976   0.00681   0.32540   0.00681   0.32540
 -7.75970   0.00597   0.32569   0.00597   0.32569
 -7.70964   0.00643   0.32602   0.00643   0.32602
 -7.65957   0.00817   0.32643   0.00817   0.32643
 -7.60951   0.01135   0.32699   0.01135   0.32699
 -7.55945   0.01591   0.32779   0.01591   0.32779
 -7.50939   0.02132   0.32886   0.02132   0.32886
 -7.45932   0.02683   0.33020   0.02683   0.33020
 -7.40926   0.03208   0.33181   0.03208   0.33181
 -7.35920   0.03777   0.33370   0.03777   0.33370
 -7.30914   0.04551   0.33598   0.04551   0.33598
 -7.25907   0.05670   0.33881   0.05670   0.33881
 -7.20901   0.07105   0.34237   0.07105   0.34237
 -7.15895   0.08584   0.34667   0.08584   0.34667
 -7.10889   0.09682   0.35151   0.09682   0.35151
 -7.05882   0.10033   0.35654   0.10033   0.35654
 -7.00876   0.09528   0.36131   0.09528   0.36131
 -6.95870   0.08346   0.36549   0.08346   0.36549
 -6.90864   0.06830   0.36891   0.06830   0.36891
 -6.85857   0.05300   0.37156   0.05300   0.37156
 -6.80851   0.03943   0.37353   0.03943   0.37353
 -6.75845   0.02817   0.37494   0.02817   0.37494
 -6.70839   0.01915   0.37590   0.01915   0.37590
 -6.65832   0.01221   0.37651   0.01221   0.37651
 -6.60826   0.00719   0.37687   0.00719   0.37687
 -6.55820   0.00389   0.37707   0.00389   0.37707
 -6.50814   0.00202   0.37717   0.00202   0.37717
 -6.45807   0.00128   0.37723   0.00128   0.37723
 -6.40801   0.00151   0.37731   0.00151   0.37731
 -6.35795   0.00277   0.37745   0.00277   0.37745
 -6.30788   0.00533   0.37771   0.00533   0.37771
 -6.25782   0.00946   0.37819   0.00946   0.37819
 -6.20776   0.01524   0.37895   0.01524   0.37895
 -6.15770   0.02236   0.38007   0.02236   0.38007
 -6.10763   0.03007   0.38157   0.03007   0.38157
 -6.05757   0.03733   0.38344   0.03733   0.38344
 -6.00751   0.04304   0.38560   0.04304   0.38560
 -5.95745   0.04622   0.38791   0.04622   0.38791
 -5.90738   0.04635   0.39023   0.04635   0.39023
 -5.85732   0.04355   0.39241   0.04355   0.39241
 -5.80726   0.03878   0.39435   0.03878   0.39435
 -5.75720   0.03362   0.39604   0.03362   0.39604
 -5.70713   0.02971   0.39752   0.02971   0.39752
 -5.65707   0.02807   0.39893   0.02807   0.39893
 -5.60701   0.02856   0.40036   0.02856   0.40036
 -5.55695   0.02997   0.40186   0.02997   0.40186
 -5.50688   0.03065   0.40339   0.03065   0.40339
 -5.45682   0.02933   0.40486   0.02933   0.40486
 -5.40676   0.02573   0.40615   0.02573   0.40615
 -5.35670   0.02059   0.40718   0.02059   0.40718
 -5.30663   0.01516   0.40794   0.01516   0.40794
 -5.25657   0.01057   0.40847   0.01057   0.40847
 -5.20651   0.00740   0.40884   0.00740   0.40884
 -5.15645   0.00566   0.40912   0.00566   0.40912
 -5.10638   0.00504   0.40937   0.00504   0.40937
 -5.05632   0.00516   0.40963   0.00516   0.40963
 -5.00626   0.00577   0.40992   0.00577   0.40992
 -4.95620   0.00662   0.41025   0.00662   0.41025
 -4.90613   0.00746   0.41063   0.00746   0.41063
 -4.85607   0.00795   0.41102   0.00795   0.41102
 -4.80601   0.00787   0.41142   0.00787   0.41142
 -4.75594   0.00722   0.41178   0.00722   0.41178
 -4.70588   0.00627   0.41209   0.00627   0.41209
 -4.65582   0.00539   0.41236   0.00539   0.41236
 -4.60576   0.00490   0.41261   0.00490   0.41261
 -4.55569   0.00491   0.41285   0.00491   0.41285
 -4.50563   0.00529   0.41312   0.00529   0.41312
 -4.45557   0.00581   0.41341   0.00581   0.41341
 -4.40551   0.00630   0.41373   0.00630   0.41373
 -4.35544   0.00666   0.41406   0.00666   0.41406
 -4.30538   0.00688   0.41440   0.00688   0.41440
 -4.25532   0.00690   0.41475   0.00690   0.41475
 -4.20526   0.00660   0.41508   0.00660   0.41508
 -4.15519   0.00585   0.41537   0.00585   0.41537
 -4.10513   0.00460   0.41560   0.00460   0.41560
 -4.05507   0.00295   0.41575   0.00295   0.41575
 -4.00501   0.00114   0.41581   0.00114   0.41581
 -3.95494  -0.00059   0.41578  -0.00059   0.41578
 -3.90488  -0.00196   0.41568  -0.00196   0.41568
 -3.85482  -0.00281   0.41554  -0.00281   0.41554
 -3.80476  -0.00306   0.41539  -0.00306   0.41539
 -3.75469  -0.00280   0.41525  -0.00280   0.41525
 -3.70463  -0.00222   0.41513  -0.00222   0.41513
 -3.65457  -0.00155   0.41506  -0.00155   0.41506
 -3.60451  -0.00096   0.41501  -0.00096   0.41501
 -3.55444  -0.00058   0.41498  -0.00058   0.41498
 -3.50438  -0.00043   0.41496  -0.00043   0.41496
 -3.45432  -0.00054   0.41493  -0.00054   0.41493
 -3.40426  -0.00096   0.41488  -0.00096   0.41488
 -3.35419  -0.00176   0.41479  -0.00176   0.41479
 -3.30413  -0.00295   0.41465  -0.00295   0.41465
 -3.25407  -0.00449   0.41442  -0.00449   0.41442
 -3.20401  -0.00621   0.41411  -0.00621   0.41411
 -3.15394  -0.00788   0.41372  -0.00788   0.41372
 -3.10388  -0.00928   0.41325  -0.00928   0.41325
 -3.05382  -0.01019   0.41274  -0.01019   0.41274
 -3.00375  -0.01045   0.41222  -0.01045   0.41222
 -2.95369  -0.00995   0.41172  -0.00995   0.41172
 -2.90363  -0.00873   0.41128  -0.00873   0.41128
 -2.85357  -0.00699   0.41093  -0.00699   0.41093
 -2.80350  -0.00506   0.41068  -0.00506   0.41068
 -2.75344  -0.00328   0.41052  -0.00328   0.41052
 -2.70338  -0.00190   0.41042  -0.00190   0.41042
 -2.65332  -0.00098   0.41037  -0.00098   0.41037
 -2.60325  -0.00046   0.41035  -0.00046   0.41035
 -2.55319  -0.00023   0.41034  -0.00023   0.41034
 -2.50313  -0.00019   0.41033  -0.00019   0.41033
 -2.45307  -0.00031   0.41031  -0.00031   0.41031
 -2.40300  -0.00059   0.41028  -0.00059   0.41028
 -2.35294  -0.00107   0.41023  -0.00107   0.41023
 -2.30288  -0.00173   0.41014  -0.00173   0.41014
 -2.25282  -0.00245   0.41002  -0.00245   0.41002
 -2.20275  -0.00308   0.40987  -0.00308   0.40987
 -2.15269  -0.00342   0.40969  -0.00342   0.40969
 -2.10263  -0.00335   0.40953  -0.00335   0.40953
 -2.05257  -0.00290   0.40938  -0.00290   0.40938
 -2.00250  -0.00222   0.40927  -0.00222   0.40927
 -1.95244  -0.00150   0.40919  -0.00150   0.40919
 -1.90238  -0.00089   0.40915  -0.00089   0.40915
 -1.85232  -0.00047   0.40913  -0.00047   0.40913
 -1.80225  -0.00022   0.40912  -0.00022   0.40912
 -1.75219  -0.00009   0.40911  -0.00009   0.40911
 -1.70213  -0.00003   0.40911  -0.00003   0.40911
 -1.65207  -0.00001   0.40911  -0.00001   0.40911
 -1.60200  -0.00000   0.40911  -0.00000   0.40911
 -1.55194  -0.00000   0.40911  -0.00000   0.40911
 -1.50188  -0.00000   0.40911  -0.00000   0.40911
 -1.45181  -0.00000   0.40911  -0.00000   0.40911
 -1.40175  -0.00000   0.40911  -0.00000   0.40911
 -1.35169  -0.00000   0.40911  -0.00000   0.40911
 -1.30163  -0.00000   0.40911  -0.00000   0.40911
 -1.25156  -0.00000   0.40911  -0.00000   0.40911
 -1.20150  -0.00000   0.40911  -0.00000   0.40911
 -1.15144  -0.00000   0.40911  -0.00000   0.40911
 -1.10138  -0.00000   0.40911  -0.00000   0.40911
 -1.05131  -0.00000   0.40911  -0.00000   0.40911
 -1.00125  -0.00000   0.40911  -0.00000   0.40911
 -0.95119   0.00000   0.40911   0.00000   0.40911
 -0.90113   0.00000   0.40911   0.00000   0.40911
 -0.85106   0.00000   0.40911   0.00000   0.40911
 -0.80100   0.00000   0.40911   0.00000   0.40911
 -0.75094   0.00000   0.40911   0.00000   0.40911
 -0.70088   0.00000   0.40911   0.00000   0.40911
 -0.65081   0.00000   0.40911   0.00000   0.40911
 -0.60075   0.00000   0.40911   0.00000   0.40911
 -0.55069   0.00000   0.40911   0.00000   0.40911
 -0.50063   0.00000   0.40911   0.00000   0.40911
 -0.45056   0.00000   0.40911   0.00000   0.40911
 -0.40050   0.00000   0.40911   0.00000   0.40911
 -0.35044   0.00000   0.40911   0.00000   0.40911
 -0.30038   0.00000   0.40911   0.00000   0.40911
 -0.25031   0.00000   0.40911   0.00000   0.40911
 -0.20025   0.00000   0.40911   0.00000   0.40911
 -0.15019   0.00000   0.40911   0.00000   0.40911
 -0.10013   0.00000   0.40911   0.00000   0.40911
 -0.05006   0.00000   0.40911   0.00000   0.40911
 -0.00000   0.00000   0.40911   0.00000   0.40911
  0.05006   0.00000   0.40911   0.00000   0.40911
  0.10013   0.00000   0.40911   0.00000   0.40911
  0.15019   0.00000   0.40911   0.00000   0.40911
  0.20025   0.00000   0.40911   0.00000   0.40911
  0.25031   0.00000   0.40911   0.00000   0.40911
  0.30038   0.00000   0.40911   0.00000   0.40911
  0.35044   0.00000   0.40911   0.00000   0.40911
  0.40050   0.00000   0.40911   0.00000   0.40911
  0.45056   0.00000   0.40911   0.00000   0.40911
  0.50063   0.00000   0.40911   0.00000   0.40911
  0.55069   0.00000   0.40911   0.00000   0.40911
  0.60075   0.00000   0.40911   0.00000   0.40911
  0.65081   0.00000   0.40911   0.00000   0.40911
  0.70088   0.00000   0.40911   0.00000   0.40911
  0.75094   0.00000   0.40911   0.00000   0.40911
  0.80100   0.00000   0.40911   0.00000   0.40911
  0.85106   0.00000   0.40911   0.00000   0.40911
  0.90113   0.00000   0.40911   0.00000   0.40911
  0.95119   0.00000   0.40911   0.00000   0.40911
  1.00125  -0.00000   0.40911  -0.00000   0.40911
  1.05131  -0.00000   0.40911  -0.00000   0.40911
  1.10138  -0.00000   0.40911  -0.00000   0.40911
  1.15144  -0.00000   0.40911  -0.00000   0.40911
  1.20150  -0.00000   0.40911  -0.00000   0.40911
  1.25156  -0.00000   0.40911  -0.00000   0.40911
  1.30163  -0.00000   0.40911  -0.00000   0.40911
  1.35169  -0.00000   0.40911  -0.00000   0.40911
  1.40175  -0.00000   0.40911  -0.00000   0.40911
  1.45181  -0.00000   0.40911  -0.00000   0.40911
  1.50188  -0.00000   0.40911  -0.00000   0.40911
  1.55194  -0.00001   0.40911  -0.00001   0.40911
  1.60200  -0.00003   0.40911  -0.00003   0.40911
  1.65207  -0.00011   0.40910  -0.00011   0.40910
  1.70213  -0.00035   0.40908  -0.00035   0.40908
  1.75219  -0.00096   0.40903  -0.00096   0.40903
  1.80225  -0.00231   0.40892  -0.00231   0.40892
  1.85232  -0.00493   0.40867  -0.00493   0.40867
  1.90238  -0.00927   0.40821  -0.00927   0.40821
  1.95244  -0.01541   0.40744  -0.01541   0.40744
  2.00250  -0.02265   0.40630  -0.02265   0.40630
  2.05257  -0.02941   0.40483  -0.02941   0.40483
  2.10263  -0.03375   0.40314  -0.03375   0.40314
  2.15269  -0.03422   0.40143  -0.03422   0.40143
  2.20275  -0.03068   0.39989  -0.03068   0.39989
  2.25282  -0.02430   0.39868  -0.02430   0.39868
  2.30288  -0.01702   0.39782  -0.01702   0.39782
  2.35294  -0.01055   0.39730  -0.01055   0.39730
  2.40300  -0.00583   0.39700  -0.00583   0.39700
  2.45307  -0.00305   0.39685  -0.00305   0.39685
  2.50313  -0.00201   0.39675  -0.00201   0.39675
  2.55319  -0.00269   0.39662  -0.00269   0.39662
  2.60325  -0.00557   0.39634  -0.00557   0.39634
  2.65332  -0.01174   0.39575  -0.01174   0.39575
  2.70338  -0.02252   0.39462  -0.02252   0.39462
  2.75344  -0.03876   0.39268  -0.03876   0.39268
  2.80350  -0.06003   0.38968  -0.06003   0.38968
  2.85357  -0.08408   0.38547  -0.08408   0.38547
  2.90363  -0.10707   0.38011  -0.10707   0.38011
  2.95369  -0.12457   0.37387  -0.12457   0.37387
  3.00375  -0.13284   0.36722  -0.13284   0.36722
  3.05382  -0.12991   0.36072  -0.12991   0.36072
  3.10388  -0.11636   0.35489  -0.11636   0.35489
  3.15394  -0.09525   0.35012  -0.09525   0.35012
  3.20401  -0.07152   0.34654  -0.07152   0.34654
  3.25407  -0.05048   0.34401  -0.05048   0.34401
  3.30413  -0.03635   0.34220  -0.03635   0.34220
  3.35419  -0.03106   0.34064  -0.03106   0.34064
  3.40426  -0.03399   0.33894  -0.03399   0.33894
  3.45432  -0.04221   0.33683  -0.04221   0.33683
  3.50438  -0.05164   0.33424  -0.05164   0.33424
  3.55444  -0.05872   0.33130  -0.05872   0.33130
  3.60451  -0.06210   0.32819  -0.06210   0.32819
  3.65457  -0.06351   0.32501  -0.06351   0.32501
  3.70463  -0.06683   0.32167  -0.06683   0.32167
  3.75469  -0.07574   0.31788  -0.07574   0.31788
  3.80476  -0.09105   0.31332  -0.09105   0.31332
  3.85482  -0.10936   0.30784  -0.10936   0.30784
  3.90488  -0.12405   0.30163  -0.12405   0.30163
  3.95494  -0.12845   0.29520  -0.12845   0.29520
  4.00501  -0.11938   0.28922  -0.11938   0.28922
  4.05507  -0.09876   0.28428  -0.09876   0.28428
  4.10513  -0.07239   0.28066  -0.07239   0.28066
  4.15519  -0.04672   0.27832  -0.04672   0.27832
  4.20526  -0.02608   0.27701  -0.02608   0.27701
  4.25532  -0.01167   0.27643  -0.01167   0.27643
  4.30538  -0.00243   0.27631  -0.00243   0.27631
  4.35544   0.00335   0.27647   0.00335   0.27647
  4.40551   0.00673   0.27681   0.00673   0.27681
  4.45557   0.00747   0.27718   0.00747   0.27718
  4.50563   0.00399   0.27738   0.00399   0.27738
  4.55569  -0.00641   0.27706  -0.00641   0.27706
  4.60576  -0.02698   0.27571  -0.02698   0.27571
  4.65582  -0.06037   0.27269  -0.06037   0.27269
  4.70588  -0.10685   0.26734  -0.10685   0.26734
  4.75594  -0.16252   0.25921  -0.16252   0.25921
  4.80601  -0.21909   0.24824  -0.21909   0.24824
  4.85607  -0.26593   0.23492  -0.26593   0.23492
  4.90613  -0.29384   0.22021  -0.29384   0.22021
  4.95620  -0.29825   0.20528  -0.29825   0.20528
  5.00626  -0.28012   0.19126  -0.28012   0.19126
  5.05632  -0.24460   0.17901  -0.24460   0.17901
  5.10638  -0.19886   0.16906  -0.19886   0.16906
  5.15645  -0.15041   0.16153  -0.15041   0.16153
  5.20651  -0.10597   0.15622  -0.10597   0.15622
  5.25657  -0.07077   0.15268  -0.07077   0.15268
  5.30663  -0.04801   0.15028  -0.04801   0.15028
  5.35670  -0.03863   0.14834  -0.03863   0.14834
  5.40676  -0.04137   0.14627  -0.04137   0.14627
  5.45682  -0.05284   0.14363  -0.05284   0.14363
  5.50688  -0.06791   0.14023  -0.06791   0.14023
  5.55695  -0.08086   0.13618  -0.08086   0.13618
  5.60701  -0.08765   0.13179  -0.08765   0.13179
  5.65707  -0.08827   0.12737  -0.08827   0.12737
  5.70713  -0.08797   0.12297  -0.08797   0.12297
  5.75720  -0.09599   0.11816  -0.09599   0.11816
  5.80726  -0.12214   0.11205  -0.12214   0.11205
  5.85732  -0.17236   0.10342  -0.17236   0.10342
  5.90738  -0.24512   0.09115  -0.24512   0.09115
  5.95745  -0.33070   0.07459  -0.33070   0.07459
  6.00751  -0.41417   0.05386  -0.41417   0.05386
  6.05757  -0.48112   0.02977  -0.48112   0.02977
  6.10763  -0.52293   0.00359  -0.52293   0.00359
  6.15770  -0.53881  -0.02338  -0.53881  -0.02338
  6.20776  -0.53434  -0.05013  -0.53434  -0.05013
  6.25782  -0.51843  -0.07609  -0.51843  -0.07609
  6.30788  -0.50044  -0.10114  -0.50044  -0.10114
  6.35795  -0.48718  -0.12553  -0.48718  -0.12553
  6.40801  -0.47975  -0.14955  -0.47975  -0.14955
  6.45807  -0.47207  -0.17318  -0.47207  -0.17318
  6.50814  -0.45350  -0.19588  -0.45350  -0.19588
  6.55820  -0.41511  -0.21667  -0.41511  -0.21667
  6.60826  -0.35583  -0.23448  -0.35583  -0.23448
  6.65832  -0.28403  -0.24870  -0.28403  -0.24870
  6.70839  -0.21353  -0.25939  -0.21353  -0.25939
  6.75845  -0.15709  -0.26725  -0.15709  -0.26725
  6.80851  -0.12112  -0.27332  -0.12112  -0.27332
  6.85857  -0.10405  -0.27853  -0.10405  -0.27853
  6.90864  -0.09840  -0.28345  -0.09840  -0.28345
  6.95870  -0.09499  -0.28821  -0.09499  -0.28821
  7.00876  -0.08722  -0.29257  -0.08722  -0.29257
  7.05882  -0.07333  -0.29625  -0.07333  -0.29625
  7.10889  -0.05613  -0.29905  -0.05613  -0.29905
  7.15895  -0.04082  -0.30110  -0.04082  -0.30110
  7.20901  -0.03295  -0.30275  -0.03295  -0.30275
  7.25907  -0.03733  -0.30462  -0.03733  -0.30462
  7.30914  -0.05764  -0.30750  -0.05764  -0.30750
  7.35920  -0.09539  -0.31228  -0.09539  -0.31228
  7.40926  -0.14790  -0.31968  -0.14790  -0.31968
  7.45932  -0.20673  -0.33003  -0.20673  -0.33003
  7.50939  -0.25903  -0.34300  -0.25903  -0.34300
  7.55945  -0.29243  -0.35764  -0.29243  -0.35764
  7.60951  -0.30111  -0.37271  -0.30111  -0.37271
  7.65957  -0.28882  -0.38717  -0.28882  -0.38717