   2    2    1    1
  1.1373193e+01   2.5242506e-10   2.5242506e-10   2.5242506e-10   0.0000000e+00
            0.000000e+00
  CAR
 DOS and projected DOS file by LOBSTER. Energy is shifted such that the Fermi level lies at 0 eV. 
     33.49046494      -6.60966021   802      15.46793678       1.00000000
-22.07760   0.00000   0.12801
-22.02753   0.18382   0.13721
-21.97747   0.15334   0.14489
-21.92741   0.11713   0.15075
-21.87735   0.08944   0.15523
-21.82728   0.08261   0.15936
-21.77722   0.10480   0.16461
-21.72716   0.15825   0.17253
-21.67710   0.23718   0.18441
-21.62703   0.32659   0.20076
-21.57697   0.40498   0.22103
-21.52691   0.45171   0.24365
-21.47685   0.45548   0.26645
-21.42678   0.41832   0.28739
-21.37672   0.35281   0.30505
-21.32666   0.27510   0.31883
-21.27660   0.19900   0.32879
-21.22653   0.13340   0.33547
-21.17647   0.08246   0.33959
-21.12641   0.04672   0.34193
-21.07635   0.02432   0.34315
-21.02628   0.01232   0.34377
-20.97622   0.00798   0.34417
-20.92616   0.00968   0.34465
-20.87610   0.01710   0.34551
-20.82603   0.03039   0.34703
-20.77597   0.04882   0.34947
-20.72591   0.06956   0.35295
-20.67584   0.08763   0.35734
-20.62578   0.09768   0.36223
-20.57572   0.09672   0.36707
-20.52566   0.08629   0.37139
-20.47559   0.07275   0.37504
-20.42553   0.06569   0.37832
-20.37547   0.07560   0.38211
-20.32541   0.11133   0.38768
-20.27534   0.17721   0.39655
-20.22528   0.27015   0.41008
-20.17522   0.37845   0.42902
-20.12516   0.48427   0.45327
-20.07509   0.56921   0.48176
-20.02503   0.61948   0.51278
-19.97497   0.62794   0.54421
-19.92491   0.59345   0.57392
-19.87484   0.52064   0.59999
-19.82478   0.42055   0.62104
-19.77472   0.30987   0.63656
-19.72466   0.20676   0.64691
-19.67459   0.12514   0.65317
-19.62453   0.07153   0.65675
-19.57447   0.04642   0.65908
-19.52441   0.04833   0.66150
-19.47434   0.07662   0.66533
-19.42428   0.13069   0.67187
-19.37422   0.20563   0.68217
-19.32416   0.28820   0.69660
-19.27409   0.35745   0.71449
-19.22403   0.39210   0.73412
-19.17397   0.38103   0.75320
-19.12390   0.33012   0.76972
-19.07384   0.26021   0.78275
-19.02378   0.19805   0.79266
-18.97372   0.16608   0.80098
-18.92365   0.17616   0.80980
-18.87359   0.22783   0.82120
-18.82353   0.30892   0.83667
-18.77347   0.39765   0.85658
-18.72340   0.46747   0.87998
-18.67334   0.49520   0.90477
-18.62328   0.47022   0.92831
-18.57322   0.39903   0.94829
-18.52315   0.30196   0.96340
-18.47309   0.20341   0.97359
-18.42303   0.12183   0.97968
-18.37297   0.06498   0.98294
-18.32290   0.03145   0.98451
-18.27284   0.01561   0.98529
-18.22278   0.01227   0.98591
-18.17272   0.01901   0.98686
-18.12265   0.03611   0.98867
-18.07259   0.06449   0.99190
-18.02253   0.10293   0.99705
-17.97247   0.14617   1.00437
-17.92240   0.18599   1.01368
-17.87234   0.21592   1.02449
-17.82228   0.23756   1.03638
-17.77222   0.26387   1.04959
-17.72215   0.31585   1.06540
-17.67209   0.41274   1.08607
-17.62203   0.56002   1.11410
-17.57196   0.74139   1.15122
-17.52190   0.91953   1.19725
-17.47184   1.04706   1.24967
-17.42178   1.08449   1.30396
-17.37171   1.01769   1.35491
-17.32165   0.86521   1.39823
-17.27159   0.67015   1.43178
-17.22153   0.48050   1.45583
-17.17146   0.32948   1.47232
-17.12140   0.22674   1.48368
-17.07134   0.16308   1.49184
-17.02128   0.12240   1.49797
-16.97121   0.09203   1.50257
-16.92115   0.06690   1.50592
-16.87109   0.04829   1.50834
-16.82103   0.04076   1.51038
-16.77096   0.04998   1.51288
-16.72090   0.08132   1.51696
-16.67084   0.13762   1.52384
-16.62078   0.21584   1.53465
-16.57071   0.30471   1.54990
-16.52065   0.38705   1.56928
-16.47059   0.44746   1.59168
-16.42053   0.48059   1.61574
-16.37046   0.49288   1.64042
-16.32040   0.49507   1.66520
-16.27034   0.49142   1.68980
-16.22028   0.47557   1.71361
-16.17021   0.43676   1.73548
-16.12015   0.37068   1.75403
-16.07009   0.28517   1.76831
-16.02003   0.19654   1.77815
-15.96996   0.12054   1.78418
-15.91990   0.06555   1.78747
-15.86984   0.03155   1.78905
-15.81977   0.01343   1.78972
-15.76971   0.00507   1.78997
-15.71965   0.00176   1.79006
-15.66959   0.00084   1.79010
-15.61952   0.00134   1.79017
-15.56946   0.00379   1.79036
-15.51940   0.01036   1.79088
-15.46934   0.02517   1.79214
-15.41927   0.05409   1.79484
-15.36921   0.10284   1.79999
-15.31915   0.17325   1.80867
-15.26909   0.25939   1.82165
-15.21902   0.34728   1.83904
-15.16896   0.42067   1.86010
-15.11890   0.47079   1.88367
-15.06884   0.50256   1.90883
-15.01877   0.53069   1.93539
-14.96871   0.56697   1.96378
-14.91865   0.60858   1.99425
-14.86859   0.63803   2.02619
-14.81852   0.63557   2.05801
-14.76846   0.59409   2.08775
-14.71840   0.52426   2.11399
-14.66834   0.44684   2.13636
-14.61827   0.37949   2.15536
-14.56821   0.32886   2.17182
-14.51815   0.29214   2.18645
-14.46809   0.26342   2.19964
-14.41802   0.23826   2.21157
-14.36796   0.21394   2.22228
-14.31790   0.18812   2.23169
-14.26783   0.15915   2.23966
-14.21777   0.12799   2.24607
-14.16771   0.09968   2.25106
-14.11765   0.08255   2.25519
-14.06758   0.08583   2.25949
-14.01752   0.11637   2.26531
-13.96746   0.17502   2.27408
-13.91740   0.25362   2.28677
-13.86733   0.33513   2.30355
-13.81727   0.39949   2.32355
-13.76721   0.43364   2.34526
-13.71715   0.43945   2.36726
-13.66708   0.43233   2.38890
-13.61702   0.43011   2.41043
-13.56696   0.44048   2.43249
-13.51690   0.45752   2.45539
-13.46683   0.47085   2.47896
-13.41677   0.47935   2.50296
-13.36671   0.49694   2.52784
-13.31665   0.54320   2.55503
-13.26658   0.62478   2.58631
-13.21652   0.72232   2.62247
-13.16646   0.79517   2.66228
-13.11640   0.80293   2.70248
-13.06633   0.72954   2.73900
-13.01627   0.59300   2.76869
-12.96621   0.43562   2.79049
-12.91615   0.30401   2.80571
-12.86608   0.23286   2.81737
-12.81602   0.23898   2.82934
-12.76596   0.32184   2.84545
-12.71589   0.46395   2.86867
-12.66583   0.63072   2.90025
-12.61577   0.77516   2.93906
-12.56571   0.85148   2.98168
-12.51564   0.83353   3.02341
-12.46558   0.72654   3.05978
-12.41552   0.56370   3.08801
-12.36546   0.38945   3.10750
-12.31539   0.24041   3.11954
-12.26533   0.13511   3.12630
-12.21527   0.07522   3.13007
-12.16521   0.05339   3.13274
-12.11514   0.06042   3.13576
-12.06508   0.08774   3.14016
-12.01502   0.12624   3.14648
-11.96496   0.16463   3.15472
-11.91489   0.19065   3.16426
-11.86483   0.19527   3.17404
-11.81477   0.17681   3.18289
-11.76471   0.14179   3.18999
-11.71464   0.10169   3.19508
-11.66458   0.06814   3.19849
-11.61452   0.05015   3.20100
-11.56446   0.05440   3.20373
-11.51439   0.08693   3.20808
-11.46433   0.15318   3.21575
-11.41427   0.25474   3.22850
-11.36421   0.38429   3.24774
-11.31414   0.52261   3.27390
-11.26408   0.64153   3.30602
-11.21402   0.71335   3.34173
-11.16395   0.72279   3.37791
-11.11389   0.67534   3.41172
-11.06383   0.59657   3.44159
-11.01377   0.52169   3.46771
-10.96370   0.47967   3.49172
-10.91364   0.48004   3.51575
-10.86358   0.50971   3.54127
-10.81352   0.54131   3.56837
-10.76345   0.54801   3.59580
-10.71339   0.51620   3.62165
-10.66333   0.45005   3.64418
-10.61327   0.36790   3.66259
-10.56320   0.29418   3.67732
-10.51314   0.25057   3.68987
-10.46308   0.24868   3.70232
-10.41302   0.28548   3.71661
-10.36295   0.34366   3.73381
-10.31289   0.39854   3.75376
-10.26283   0.42987   3.77528
-10.21277   0.43206   3.79691
-10.16270   0.41574   3.81773
-10.11264   0.39903   3.83770
-10.06258   0.39541   3.85750
-10.01252   0.40770   3.87791
 -9.96245   0.43245   3.89956
 -9.91239   0.46904   3.92304
 -9.86233   0.52312   3.94923
 -9.81227   0.59957   3.97925
 -9.76220   0.69043   4.01381
 -9.71214   0.76981   4.05235
 -9.66208   0.80324   4.09256
 -9.61202   0.76690   4.13095
 -9.56195   0.66324   4.16416
 -9.51189   0.52229   4.19030
 -9.46183   0.38923   4.20979
 -9.41176   0.30778   4.22520
 -9.36170   0.30813   4.24062
 -9.31164   0.40070   4.26068
 -9.26158   0.57252   4.28935
 -9.21151   0.78583   4.32869
 -9.16145   0.98414   4.37796
 -9.11139   1.10954   4.43350
 -9.06133   1.12641   4.48989
 -9.01126   1.03822   4.54187
 -8.96120   0.88577   4.58621
 -8.91114   0.72681   4.62260
 -8.86108   0.60940   4.65311
 -8.81101   0.55490   4.68089
 -8.76095   0.55858   4.70885
 -8.71089   0.60344   4.73906
 -8.66083   0.67424   4.77282
 -8.61076   0.76072   4.81090
 -8.56070   0.85095   4.85350
 -8.51064   0.92612   4.89986
 -8.46058   0.96663   4.94826
 -8.41051   0.96599   4.99662
 -8.36045   0.93781   5.04357
 -8.31039   0.90628   5.08894
 -8.26033   0.88634   5.13331
 -8.21026   0.87072   5.17690
 -8.16020   0.83537   5.21872
 -8.11014   0.75850   5.25669
 -8.06008   0.63787   5.28863
 -8.01001   0.49348   5.31333
 -7.95995   0.35564   5.33113
 -7.90989   0.24866   5.34358
 -7.85982   0.18125   5.35266
 -7.80976   0.14786   5.36006
 -7.75970   0.13737   5.36694
 -7.70964   0.14232   5.37406
 -7.65957   0.16277   5.38221
 -7.60951   0.20322   5.39238
 -7.55945   0.26572   5.40569
 -7.50939   0.34532   5.42297
 -7.45932   0.43351   5.44468
 -7.40926   0.52918   5.47117
 -7.35920   0.64822   5.50362
 -7.30914   0.82021   5.54468
 -7.25907   1.06749   5.59812
 -7.20901   1.37799   5.66711
 -7.15895   1.69341   5.75188
 -7.10889   1.92770   5.84839
 -7.05882   2.00853   5.94894
 -7.00876   1.91411   6.04477
 -6.95870   1.68018   6.12888
 -6.90864   1.37493   6.19771
 -6.85857   1.06331   6.25095
 -6.80851   0.78510   6.29025
 -6.75845   0.55455   6.31801
 -6.70839   0.37193   6.33663
 -6.65832   0.23372   6.34833
 -6.60826   0.13586   6.35513
 -6.55820   0.07319   6.35880
 -6.50814   0.03949   6.36077
 -6.45807   0.02967   6.36226
 -6.40801   0.04281   6.36440
 -6.35795   0.08352   6.36858
 -6.30788   0.16011   6.37660
 -6.25782   0.27954   6.39059
 -6.20776   0.44093   6.41267
 -6.15770   0.63157   6.44429
 -6.10763   0.82852   6.48576
 -6.05757   1.00503   6.53608
 -6.00751   1.13735   6.59302
 -5.95745   1.20864   6.65353
 -5.90738   1.21074   6.71414
 -5.85732   1.14711   6.77157
 -5.80726   1.03658   6.82346
 -5.75720   0.91270   6.86915
 -5.70713   0.81359   6.90988
 -5.65707   0.76498   6.94818
 -5.60701   0.76622   6.98654
 -5.55695   0.78975   7.02608
 -5.50688   0.79585   7.06592
 -5.45682   0.75433   7.10368
 -5.40676   0.65976   7.13671
 -5.35670   0.53190   7.16334
 -5.30663   0.40285   7.18351
 -5.25657   0.30020   7.19854
 -5.20651   0.23667   7.21038
 -5.15645   0.21058   7.22093
 -5.10638   0.21413   7.23165
 -5.05632   0.24198   7.24376
 -5.00626   0.29373   7.25846
 -4.95620   0.36918   7.27695
 -4.90613   0.46102   7.30003
 -4.85607   0.55167   7.32764
 -4.80601   0.61836   7.35860
 -4.75594   0.64429   7.39086
 -4.70588   0.62864   7.42233
 -4.65582   0.58800   7.45176
 -4.60576   0.54699   7.47915
 -4.55569   0.52407   7.50538
 -4.50563   0.52267   7.53155
 -4.45557   0.53374   7.55827
 -4.40551   0.54604   7.58561
 -4.35544   0.55431   7.61336
 -4.30538   0.55834   7.64131
 -4.25532   0.55607   7.66915
 -4.20526   0.53972   7.69617
 -4.15519   0.50015   7.72121
 -4.10513   0.43540   7.74300
 -4.05507   0.35494   7.76077
 -4.00501   0.27534   7.77456
 -3.95494   0.21082   7.78511
 -3.90488   0.16625   7.79343
 -3.85482   0.13705   7.80030
 -3.80476   0.11464   7.80603
 -3.75469   0.09256   7.81067
 -3.70463   0.06928   7.81414
 -3.65457   0.04704   7.81649
 -3.60451   0.02907   7.81795
 -3.55444   0.01760   7.81883
 -3.50438   0.01377   7.81952
 -3.45432   0.01867   7.82045
 -3.40426   0.03423   7.82217
 -3.35419   0.06277   7.82531
 -3.30413   0.10538   7.83058
 -3.25407   0.16003   7.83860
 -3.20401   0.22096   7.84966
 -3.15394   0.28000   7.86367
 -3.10388   0.32869   7.88013
 -3.05382   0.35981   7.89814
 -3.00375   0.36779   7.91655
 -2.95369   0.34949   7.93405
 -2.90363   0.30609   7.94937
 -2.85357   0.24463   7.96162
 -2.80350   0.17678   7.97047
 -2.75344   0.11466   7.97621
 -2.70338   0.06640   7.97954
 -2.65332   0.03425   7.98125
 -2.60325   0.01584   7.98204
 -2.55319   0.00698   7.98239
 -2.50313   0.00400   7.98259
 -2.45307   0.00478   7.98283
 -2.40300   0.00859   7.98326
 -2.35294   0.01533   7.98403
 -2.30288   0.02461   7.98526
 -2.25282   0.03498   7.98701
 -2.20275   0.04393   7.98921
 -2.15269   0.04874   7.99165
 -2.10263   0.04777   7.99404
 -2.05257   0.04136   7.99612
 -2.00250   0.03164   7.99770
 -1.95244   0.02138   7.99877
 -1.90238   0.01276   7.99941
 -1.85232   0.00673   7.99974
 -1.80225   0.00313   7.99990
 -1.75219   0.00129   7.99997
 -1.70213   0.00047   7.99999
 -1.65207   0.00015   8.00000
 -1.60200   0.00004   8.00000
 -1.55194   0.00001   8.00000
 -1.50188   0.00000   8.00000
 -1.45181   0.00000   8.00000
 -1.40175   0.00000   8.00000
 -1.35169   0.00000   8.00000
 -1.30163   0.00000   8.00000
 -1.25156   0.00000   8.00000
 -1.20150   0.00000   8.00000
 -1.15144   0.00000   8.00000
 -1.10138   0.00000   8.00000
 -1.05131   0.00000   8.00000
 -1.00125   0.00000   8.00000
 -0.95119   0.00000   8.00000
 -0.90113   0.00000   8.00000
 -0.85106   0.00000   8.00000
 -0.80100   0.00000   8.00000
 -0.75094   0.00000   8.00000
 -0.70088   0.00000   8.00000
 -0.65081   0.00000   8.00000
 -0.60075   0.00000   8.00000
 -0.55069   0.00000   8.00000
 -0.50063   0.00000   8.00000
 -0.45056   0.00000   8.00000
 -0.40050   0.00000   8.00000
 -0.35044   0.00000   8.00000
 -0.30038   0.00000   8.00000
 -0.25031   0.00000   8.00000
 -0.20025   0.00000   8.00000
 -0.15019   0.00000   8.00000
 -0.10013   0.00000   8.00000
 -0.05006   0.00000   8.00000
 -0.00000   0.00000   8.00000
  0.05006   0.00000   8.00000
  0.10013   0.00000   8.00000
  0.15019   0.00000   8.00000
  0.20025   0.00000   8.00000
  0.25031   0.00000   8.00000
  0.30038   0.00000   8.00000
  0.35044   0.00000   8.00000
  0.40050   0.00000   8.00000
  0.45056   0.00000   8.00000
  0.50063   0.00000   8.00000
  0.55069   0.00000   8.00000
  0.60075   0.00000   8.00000
  0.65081   0.00000   8.00000
  0.70088   0.00000   8.00000
  0.75094   0.00000   8.00000
  0.80100   0.00000   8.00000
  0.85106   0.00000   8.00000
  0.90113   0.00000   8.00000
  0.95119  -0.00000   8.00000
  1.00125   0.00000   8.00000
  1.05131   0.00000   8.00000
  1.10138   0.00000   8.00000
  1.15144   0.00000   8.00000
  1.20150   0.00000   8.00000
  1.25156   0.00000   8.00000
  1.30163   0.00000   8.00000
  1.35169   0.00000   8.00000
  1.40175   0.00000   8.00000
  1.45181   0.00000   8.00000
  1.50188   0.00001   8.00000
  1.55194   0.00004   8.00000
  1.60200   0.00016   8.00001
  1.65207   0.00056   8.00004
  1.70213   0.00175   8.00013
  1.75219   0.00483   8.00037
  1.80225   0.01180   8.00096
  1.85232   0.02550   8.00224
  1.90238   0.04872   8.00467
  1.95244   0.08227   8.00879
  2.00250   0.12281   8.01494
  2.05257   0.16207   8.02305
  2.10263   0.18908   8.03252
  2.15269   0.19501   8.04228
  2.20275   0.17781   8.05118
  2.25282   0.14332   8.05836
  2.30288   0.10214   8.06347
  2.35294   0.06440   8.06670
  2.40300   0.03611   8.06850
  2.45307   0.01862   8.06944
  2.50313   0.01075   8.06997
  2.55319   0.01146   8.07055
  2.60325   0.02192   8.07165
  2.65332   0.04606   8.07395
  2.70338   0.08951   8.07843
  2.75344   0.15673   8.08628
  2.80350   0.24737   8.09866
  2.85357   0.35348   8.11636
  2.90363   0.45955   8.13937
  2.95369   0.54567   8.16668
  3.00375   0.59308   8.19637
  3.05382   0.59014   8.22592
  3.10388   0.53695   8.25280
  3.15394   0.44668   8.27516
  3.20401   0.34192   8.29228
  3.25407   0.24698   8.30464
  3.30413   0.17961   8.31364
  3.35419   0.14657   8.32097
  3.40426   0.14477   8.32822
  3.45432   0.16647   8.33655
  3.50438   0.20497   8.34682
  3.55444   0.25766   8.35972
  3.60451   0.32482   8.37598
  3.65457   0.40524   8.39626
  3.70463   0.49215   8.42090
  3.75469   0.57276   8.44958
  3.80476   0.63177   8.48120
  3.85482   0.65612   8.51405
  3.90488   0.63839   8.54601
  3.95494   0.57848   8.57497
  4.00501   0.48455   8.59923
  4.05507   0.37243   8.61787
  4.10513   0.26211   8.63100
  4.15519   0.17207   8.63961
  4.20526   0.11448   8.64534
  4.25532   0.09367   8.65003
  4.30538   0.10713   8.65539
  4.35544   0.14687   8.66275
  4.40551   0.20063   8.67279
  4.45557   0.25506   8.68556
  4.50563   0.30259   8.70071
  4.55569   0.34938   8.71820
  4.60576   0.41810   8.73913
  4.65582   0.53986   8.76616
  4.70588   0.73580   8.80299
  4.75594   0.99777   8.85294
  4.80601   1.28097   8.91707
  4.85607   1.51641   8.99299
  4.90613   1.63904   9.07504
  4.95620   1.61566   9.15593
  5.00626   1.45678   9.22886
  5.05632   1.20717   9.28929
  5.10638   0.92406   9.33555
  5.15645   0.65691   9.36844
  5.20651   0.43764   9.39035
  5.25657   0.28103   9.40442
  5.30663   0.19012   9.41393
  5.35670   0.16098   9.42199
  5.40676   0.18441   9.43123
  5.45682   0.24501   9.44349
  5.50688   0.32091   9.45956
  5.55695   0.38803   9.47898
  5.60701   0.42942   9.50048
  5.65707   0.44497   9.52276
  5.70713   0.45379   9.54548
  5.75720   0.48600   9.56981
  5.80726   0.56801   9.59824
  5.85732   0.71050   9.63381
  5.90738   0.90606   9.67917
  5.95745   1.13633   9.73606
  6.00751   1.38245   9.80527
  6.05757   1.63027   9.88688
  6.10763   1.86687   9.98034
  6.15770   2.07251  10.08410
  6.20776   2.21848  10.19516
  6.25782   2.27704  10.30916
  6.30788   2.23799  10.42120
  6.35795   2.11708  10.52718
  6.40801   1.94686  10.62465
  6.45807   1.75616  10.71257
  6.50814   1.55537  10.79043
  6.55820   1.33915  10.85747
  6.60826   1.10229  10.91266
  6.65832   0.85376  10.95540
  6.70839   0.61738  10.98631
  6.75845   0.42013  11.00734
  6.80851   0.27846  11.02128
  6.85857   0.19187  11.03088
  6.90864   0.14613  11.03820
  6.95870   0.12211  11.04431
  7.00876   0.10439  11.04954
  7.05882   0.08579  11.05383
  7.10889   0.06737  11.05721
  7.15895   0.05605  11.06001
  7.20901   0.06254  11.06314
  7.25907   0.10037  11.06817
  7.30914   0.18435  11.07740
  7.35920   0.32560  11.09370
  7.40926   0.52293  11.11988
  7.45932   0.75555  11.15770
  7.50939   0.98444  11.20699
  7.55945   1.16608  11.26536
  7.60951   1.27234  11.32906
  7.65957   1.30378  11.39433
  7.70964   1.28685  11.45875
  7.75970   1.25762  11.52171
  7.80976   1.24344  11.58396
  7.85982   1.25314  11.64670
  7.90989   1.27791  11.71067
  7.95995   1.29870  11.77569
  8.01001   1.29586  11.84056
  8.06008   1.25868  11.90358
  8.11014   1.19213  11.96326
  8.16020   1.11628  12.01914
  8.21026   1.05672  12.07204
  8.26033   1.03024  12.12362
  8.31039   1.03429  12.17540
  8.36045   1.04635  12.22778
  8.41051   1.03363  12.27953
  8.46058   0.96849  12.32801
  8.51064   0.84224  12.37018
  8.56070   0.66989  12.40371
  8.61076   0.48298  12.42789
  8.66083   0.31508  12.44367
  8.71089   0.18916  12.45314
  8.76095   0.11338  12.45881
  8.81101   0.08501  12.46307
  8.86108   0.09691  12.46792
  8.91114   0.14156  12.47501
  8.96120   0.21136  12.48559
  9.01126   0.29687  12.50045
  9.06133   0.38532  12.51974
  9.11139   0.46096  12.54282
  9.16145   0.50775  12.56824
  9.21151   0.51455  12.59400
  9.26158   0.48134  12.61809
  9.31164   0.42239  12.63924
  9.36170   0.36263  12.65739
  9.41176   0.32694  12.67376
  9.46183   0.32754  12.69016
  9.51189   0.35717  12.70804
  9.56195   0.39279  12.72770
  9.61202   0.40867  12.74816
  9.66208   0.39128  12.76775
  9.71214   0.34726  12.78514
  9.76220   0.29972  12.80014
  9.81227   0.27560  12.81394
  9.86233   0.29205  12.82856
  9.91239   0.34885  12.84602
  9.96245   0.43016  12.86756
 10.01252   0.51330  12.89326
 10.06258   0.57878  12.92223
 10.11264   0.61618  12.95308
 10.16270   0.62459  12.98435
 10.21277   0.61124  13.01495
 10.26283   0.59170  13.04457
 10.31289   0.58986  13.07410
 10.36295   0.63243  13.10576
 10.41302   0.73681  13.14265
 10.46308   0.89909  13.18766
 10.51314   1.09143  13.24230
 10.56320   1.27200  13.30598
 10.61327   1.40091  13.37611
 10.66333   1.45280  13.44884
 10.71339   1.42177  13.52002
 10.76345   1.32061  13.58613
 10.81352   1.17632  13.64502
 10.86358   1.02140  13.69616
 10.91364   0.88129  13.74028
 10.96370   0.76447  13.77855
 11.01377   0.66319  13.81175
 11.06383   0.56588  13.84008
 11.11389   0.47230  13.86372
 11.16395   0.40115  13.88380
 11.21402   0.38570  13.90311
 11.26408   0.46057  13.92617
 11.31414   0.64528  13.95848
 11.36421   0.92997  14.00503
 11.41427   1.26928  14.06858
 11.46433   1.59121  14.14824
 11.51439   1.82115  14.23941
 11.56446   1.91090  14.33507
 11.61452   1.85620  14.42800
 11.66458   1.69286  14.51275
 11.71464   1.47725  14.58670
 11.76471   1.26621  14.65009
 11.81477   1.10721  14.70552
 11.86483   1.03652  14.75741
 11.91489   1.07493  14.81123
 11.96496   1.21612  14.87211
 12.01502   1.41627  14.94301
 12.06508   1.59992  15.02311
 12.11514   1.68723  15.10757
 12.16521   1.62943  15.18915
 12.21527   1.42981  15.26073
 12.26533   1.13750  15.31767
 12.31539   0.82088  15.35877
 12.36546   0.53895  15.38575
 12.41552   0.32525  15.40203
 12.46558   0.18730  15.41141
 12.51564   0.11517  15.41717
 12.56571   0.09126  15.42174
 12.61577   0.09658  15.42658
 12.66583   0.11369  15.43227
 12.71589   0.12821  15.43869
 12.76596   0.13078  15.44523
 12.81602   0.11869  15.45118
 12.86608   0.09563  15.45596
 12.91615   0.06916  15.45943
 12.96621   0.04744  15.46180
 13.01627   0.03742  15.46367
 13.06633   0.04529  15.46594
 13.11640   0.07768  15.46983
 13.16646   0.14140  15.47691
 13.21652   0.24029  15.48894
 13.26658   0.37045  15.50748
 13.31665   0.51726  15.53338
 13.36671   0.65711  15.56628
 13.41677   0.76431  15.60454
 13.46683   0.81967  15.64557
 13.51690   0.81658  15.68645
 13.56696   0.76215  15.72461
 13.61702   0.67324  15.75831
 13.66708   0.56988  15.78684
 13.71715   0.46948  15.81035
 13.76721   0.38446  15.82959
 13.81727   0.32290  15.84576
 13.86733   0.28944  15.86025
 13.91740   0.28426  15.87448
 13.96746   0.30113  15.88956
 14.01752   0.32754  15.90595
 14.06758   0.34804  15.92338
 14.11765   0.34958  15.94088
 14.16771   0.32588  15.95719
 14.21777   0.27899  15.97116
 14.26783   0.21777  15.98206
 14.31790   0.15404  15.98977
 14.36796   0.09822  15.99469
 14.41802   0.05619  15.99750
 14.46809   0.02873  15.99894
 14.51815   0.01309  15.99960
 14.56821   0.00530  15.99986
 14.61827   0.00190  15.99996
 14.66834   0.00061  15.99999
 14.71840   0.00017  16.00000
 14.76846   0.00004  16.00000
 14.81852   0.00001  16.00000
 14.86859   0.00000  16.00000
 14.91865   0.00000  16.00000
 14.96871   0.00000  16.00000
 15.01877   0.00000  16.00000
 15.06884   0.00000  16.00000
 15.11890   0.00000  16.00000
 15.16896   0.00000  16.00000
 15.21902   0.00000  16.00000
 15.26909   0.00000  16.00000
 15.31915   0.00000  16.00000
 15.36921   0.00000  16.00000
 15.41927   0.00000  16.00000
 15.46934   0.00000  16.00000
 15.51940   0.00000  16.00000
 15.56946   0.00000  16.00000
 15.61952   0.00000  16.00000
 15.66959   0.00000  16.00000
 15.71965   0.00000  16.00000
 15.76971   0.00000  16.00000
 15.81977   0.00000  16.00000
 15.86984   0.00000  16.00000
 15.91990   0.00000  16.00000
 15.96996   0.00000  16.00000
 16.02003   0.00000  16.00000
 16.07009   0.00000  16.00000
 16.12015   0.00000  16.00000
 16.17021   0.00000  16.00000
 16.22028   0.00000  16.00000
 16.27034   0.00000  16.00000
 16.32040   0.00000  16.00000
 16.37046   0.00000  16.00000
 16.42053   0.00000  16.00000
 16.47059   0.00000  16.00000
 16.52065   0.00000  16.00000
 16.57071   0.00000  16.00000
 16.62078   0.00000  16.00000
 16.67084   0.00000  16.00000
 16.72090   0.00000  16.00000
 16.77096   0.00000  16.00000
 16.82103   0.00000  16.00000
 16.87109   0.00000  16.00000
 16.92115   0.00000  16.00000
 16.97121   0.00000  16.00000
 17.02128   0.00000  16.00000
 17.07134   0.00000  16.00000
 17.12140   0.00000  16.00000
 17.17146   0.00000  16.00000
 17.22153   0.00000  16.00000
 17.27159   0.00000  16.00000
 17.32165   0.00000  16.00000
 17.37171   0.00000  16.00000
 17.42178   0.00000  16.00000
 17.47184   0.00000  16.00000
 17.52190   0.00000  16.00000
 17.57196   0.00000  16.00000
 17.62203   0.00000  16.00000
 17.67209   0.00000  16.00000
 17.72215   0.00000  16.00000
 17.77222   0.00000  16.00000
 17.82228   0.00000  16.00000
 17.87234   0.00000  16.00000
 17.92240   0.00000  16.00000
 17.97247   0.00000  16.00000
 18.02253   0.00000  16.00000
     18.02252816     -22.07759700   802      15.46793678       1.00000000; Z=  6; 2s 2p_y 2p_z 2p_x 
-22.07760   0.00000   0.00000   0.00000   0.00000
-22.02753   0.07937   0.00418   0.00418   0.00418
-21.97747   0.06617   0.00350   0.00350   0.00350
-21.92741   0.05043   0.00271   0.00271   0.00271
-21.87735   0.03824   0.00216   0.00216   0.00216
-21.82728   0.03481   0.00216   0.00216   0.00216
-21.77722   0.04354   0.00295   0.00295   0.00295
-21.72716   0.06531   0.00461   0.00461   0.00461
-21.67710   0.09766   0.00698   0.00698   0.00698
-21.62703   0.13438   0.00964   0.00964   0.00964
-21.57697   0.16655   0.01198   0.01198   0.01198
-21.52691   0.18568   0.01339   0.01339   0.01339
-21.47685   0.18710   0.01355   0.01355   0.01355
-21.42678   0.17169   0.01249   0.01249   0.01249
-21.37672   0.14464   0.01059   0.01059   0.01059
-21.32666   0.11264   0.00830   0.00830   0.00830
-21.27660   0.08138   0.00604   0.00604   0.00604
-21.22653   0.05449   0.00407   0.00407   0.00407
-21.17647   0.03365   0.00253   0.00253   0.00253
-21.12641   0.01905   0.00144   0.00144   0.00144
-21.07635   0.00990   0.00075   0.00075   0.00075
-21.02628   0.00498   0.00039   0.00039   0.00039
-20.97622   0.00316   0.00028   0.00028   0.00028
-20.92616   0.00373   0.00037   0.00037   0.00037
-20.87610   0.00653   0.00067   0.00067   0.00067
-20.82603   0.01158   0.00120   0.00120   0.00120
-20.77597   0.01860   0.00194   0.00194   0.00194
-20.72591   0.02650   0.00276   0.00276   0.00276
-20.67584   0.03338   0.00348   0.00348   0.00348
-20.62578   0.03720   0.00388   0.00388   0.00388
-20.57572   0.03683   0.00384   0.00384   0.00384
-20.52566   0.03284   0.00344   0.00344   0.00344
-20.47559   0.02762   0.00292   0.00292   0.00292
-20.42553   0.02479   0.00269   0.00269   0.00269
-20.37547   0.02828   0.00317   0.00317   0.00317
-20.32541   0.04138   0.00476   0.00476   0.00476
-20.27534   0.06567   0.00765   0.00765   0.00765
-20.22528   0.09996   0.01171   0.01171   0.01171
-20.17522   0.13984   0.01646   0.01646   0.01646
-20.12516   0.17866   0.02116   0.02116   0.02116
-20.07509   0.20956   0.02501   0.02501   0.02501
-20.02503   0.22753   0.02741   0.02741   0.02741
-19.97497   0.23004   0.02798   0.02798   0.02798
-19.92491   0.21686   0.02662   0.02662   0.02662
-19.87484   0.18983   0.02350   0.02350   0.02350
-19.82478   0.15307   0.01907   0.01907   0.01907
-19.77472   0.11264   0.01410   0.01410   0.01410
-19.72466   0.07508   0.00943   0.00943   0.00943
-19.67459   0.04540   0.00572   0.00572   0.00572
-19.62453   0.02590   0.00329   0.00329   0.00329
-19.57447   0.01671   0.00217   0.00217   0.00217
-19.52441   0.01722   0.00231   0.00231   0.00231
-19.47434   0.02717   0.00371   0.00371   0.00371
-19.42428   0.04629   0.00635   0.00635   0.00635
-19.37422   0.07281   0.01000   0.01000   0.01000
-19.32416   0.10205   0.01402   0.01402   0.01402
-19.27409   0.12657   0.01739   0.01739   0.01739
-19.22403   0.13884   0.01907   0.01907   0.01907
-19.17397   0.13492   0.01853   0.01853   0.01853
-19.12390   0.11689   0.01606   0.01606   0.01606
-19.07384   0.09211   0.01266   0.01266   0.01266
-19.02378   0.07002   0.00967   0.00967   0.00967
-18.97372   0.05845   0.00820   0.00820   0.00820
-18.92365   0.06147   0.00887   0.00887   0.00887
-18.87359   0.07877   0.01172   0.01172   0.01172
-18.82353   0.10597   0.01616   0.01616   0.01616
-18.77347   0.13554   0.02110   0.02110   0.02110
-18.72340   0.15846   0.02509   0.02509   0.02509
-18.67334   0.16707   0.02684   0.02684   0.02684
-18.62328   0.15800   0.02570   0.02570   0.02570
-18.57322   0.13363   0.02196   0.02196   0.02196
-18.52315   0.10085   0.01671   0.01671   0.01671
-18.47309   0.06778   0.01131   0.01131   0.01131
-18.42303   0.04052   0.00680   0.00680   0.00680
-18.37297   0.02158   0.00364   0.00364   0.00364
-18.32290   0.01043   0.00177   0.00177   0.00177
-18.27284   0.00515   0.00089   0.00089   0.00089
-18.22278   0.00399   0.00071   0.00071   0.00071
-18.17272   0.00614   0.00112   0.00112   0.00112
-18.12265   0.01164   0.00214   0.00214   0.00214
-18.07259   0.02078   0.00382   0.00382   0.00382
-18.02253   0.03318   0.00610   0.00610   0.00610
-17.97247   0.04717   0.00864   0.00864   0.00864
-17.92240   0.06018   0.01094   0.01094   0.01094
-17.87234   0.07026   0.01257   0.01257   0.01257
-17.82228   0.07813   0.01355   0.01355   0.01355
-17.77222   0.08820   0.01458   0.01458   0.01458
-17.72215   0.10737   0.01685   0.01685   0.01685
-17.67209   0.14166   0.02157   0.02157   0.02157
-17.62203   0.19228   0.02924   0.02924   0.02924
-17.57196   0.25310   0.03920   0.03920   0.03920
-17.52190   0.31128   0.04950   0.04950   0.04950
-17.47184   0.35125   0.05743   0.05743   0.05743
-17.42178   0.36061   0.06054   0.06054   0.06054
-17.37171   0.33564   0.05774   0.05774   0.05774
-17.32165   0.28314   0.04982   0.04982   0.04982
-17.27159   0.21754   0.03918   0.03918   0.03918
-17.22153   0.15444   0.02860   0.02860   0.02860
-17.17146   0.10444   0.02010   0.02010   0.02010
-17.12140   0.07052   0.01428   0.01428   0.01428
-17.07134   0.04966   0.01063   0.01063   0.01063
-17.02128   0.03662   0.00819   0.00819   0.00819
-16.97121   0.02722   0.00626   0.00626   0.00626
-16.92115   0.01966   0.00460   0.00460   0.00460
-16.87109   0.01412   0.00334   0.00334   0.00334
-16.82103   0.01184   0.00285   0.00285   0.00285
-16.77096   0.01441   0.00353   0.00353   0.00353
-16.72090   0.02337   0.00576   0.00576   0.00576
-16.67084   0.03953   0.00976   0.00976   0.00976
-16.62078   0.06204   0.01529   0.01529   0.01529