
     Program PWSCF v.7.1 starts on  3Jul2024 at 16:19:36 

     This program is part of the open-source Quantum ESPRESSO suite
     for quantum simulation of materials; please cite
         "P. Giannozzi et al., J. Phys.:Condens. Matter 21 395502 (2009);
         "P. Giannozzi et al., J. Phys.:Condens. Matter 29 465901 (2017);
         "P. Giannozzi et al., J. Chem. Phys. 152 154105 (2020);
          URL http://www.quantum-espresso.org", 
     in publications or presentations arising from this work. More details at
     http://www.quantum-espresso.org/quote

     Parallel version (MPI & OpenMP), running on       1 processor cores
     Number of MPI processes:                 1
     Threads/MPI process:                     1

     MPI processes distributed on     1 nodes
     230767 MiB available memory on the printing compute node when the environment starts

     Waiting for input...
     Reading input from standard input

     Current dimensions of program PWSCF are:
     Max number of different atomic species (ntypx) = 10
     Max number of k-points (npk) =  40000
     Max angular momentum in pseudopotentials (lmaxx) =  4
     file Zn.pbesol-dnl-kjpaw_psl.1.0.0.UPF: wavefunction(s)  4S 3D renormalized
     file S.pbesol-n-kjpaw_psl.1.0.0.UPF: wavefunction(s)  3S 3P renormalized
     Found identity + (  0.0000 -0.5000 -0.5000) symmetry
     This is a supercell, fractional translations are disabled

     Subspace diagonalization in iterative solution of the eigenvalue problem:
     a serial algorithm will be used


     G-vector sticks info
     --------------------
     sticks:   dense  smooth     PW     G-vecs:    dense   smooth      PW
     Sum        2337    2337    633                84727    84727   11981

     Using Slab Decomposition



     bravais-lattice index     =            0
     lattice parameter (alat)  =      10.2251  a.u.
     unit-cell volume          =    1069.0675 (a.u.)^3
     number of atoms/cell      =            8
     number of atomic types    =            2
     number of electrons       =        72.00
     number of Kohn-Sham states=           52
     kinetic-energy cutoff     =      70.0000  Ry
     charge density cutoff     =     280.0000  Ry
     scf convergence threshold =      1.0E-06
     mixing beta               =       0.7000
     number of iterations used =            8  plain     mixing
     Exchange-correlation= SLA  PW   PSX  PSC
                           (   1   4  10   8   0   0   0)

     celldm(1)=  10.225119  celldm(2)=   0.000000  celldm(3)=   0.000000
     celldm(4)=   0.000000  celldm(5)=   0.000000  celldm(6)=   0.000000

     crystal axes: (cart. coord. in units of alat)
               a(1) = (   1.000000   0.000000   0.000000 )  
               a(2) = (   0.000000   1.000000   0.000000 )  
               a(3) = (   0.000000   0.000000   1.000000 )  

     reciprocal axes: (cart. coord. in units 2 pi/alat)
               b(1) = (  1.000000  0.000000  0.000000 )  
               b(2) = (  0.000000  1.000000  0.000000 )  
               b(3) = (  0.000000  0.000000  1.000000 )  


     PseudoPot. # 1 for Zn read from file:
     ./Zn.pbesol-dnl-kjpaw_psl.1.0.0.UPF
     MD5 check sum: 7cbebcf38f13930288a8db4390cb9bda
     Pseudo is Projector augmented-wave + core cor, Zval = 12.0
     Generated using &quot;atomic&quot; code by A. Dal Corso  v.6.2.2
     Shape of augmentation charge: PSQ
     Using radial grid of 1201 points,  6 beta functions with: 
                l(1) =   0
                l(2) =   0
                l(3) =   1
                l(4) =   1
                l(5) =   2
                l(6) =   2
     Q(r) pseudized with 0 coefficients 


     PseudoPot. # 2 for S  read from file:
     ./S.pbesol-n-kjpaw_psl.1.0.0.UPF
     MD5 check sum: 78fd7400f5a58a0528e41d867b94a9a4
     Pseudo is Projector augmented-wave + core cor, Zval =  6.0
     Generated using &quot;atomic&quot; code by A. Dal Corso  v.6.3
     Shape of augmentation charge: PSQ
     Using radial grid of 1151 points,  6 beta functions with: 
                l(1) =   0
                l(2) =   0
                l(3) =   1
                l(4) =   1
                l(5) =   2
                l(6) =   2
     Q(r) pseudized with 0 coefficients 


     atomic species   valence    mass     pseudopotential
        Zn            12.00    10.81100     Zn( 1.00)
        S              6.00    14.00670     S ( 1.00)

     No symmetry found



   Cartesian axes

     site n.     atom                  positions (alat units)
         1           Zn  tau(   1) = (   0.0000000   0.0000000   0.0000000  )
         2           Zn  tau(   2) = (   0.0000000   0.5000000   0.5000000  )
         3           Zn  tau(   3) = (   0.5000000   0.0000000   0.5000000  )
         4           Zn  tau(   4) = (   0.5000000   0.5000000   0.0000000  )
         5           S   tau(   5) = (   0.7500000   0.7500000   0.2500000  )
         6           S   tau(   6) = (   0.7500000   0.2500000   0.7500000  )
         7           S   tau(   7) = (   0.2500000   0.7500000   0.7500000  )
         8           S   tau(   8) = (   0.2500000   0.2500000   0.2500000  )

     number of k points=    14
                       cart. coord. in units 2pi/alat
        k(    1) = (   0.0000000   0.0000000   0.0000000), wk =   0.0740741
        k(    2) = (   0.0000000   0.0000000   0.3333333), wk =   0.1481481
        k(    3) = (   0.0000000   0.3333333   0.0000000), wk =   0.1481481
        k(    4) = (   0.0000000   0.3333333   0.3333333), wk =   0.1481481
        k(    5) = (   0.0000000   0.3333333  -0.3333333), wk =   0.1481481
        k(    6) = (   0.3333333   0.0000000   0.0000000), wk =   0.1481481
        k(    7) = (   0.3333333   0.0000000   0.3333333), wk =   0.1481481
        k(    8) = (   0.3333333   0.0000000  -0.3333333), wk =   0.1481481
        k(    9) = (   0.3333333   0.3333333   0.0000000), wk =   0.1481481
        k(   10) = (   0.3333333   0.3333333   0.3333333), wk =   0.1481481
        k(   11) = (   0.3333333   0.3333333  -0.3333333), wk =   0.1481481
        k(   12) = (   0.3333333  -0.3333333   0.0000000), wk =   0.1481481
        k(   13) = (   0.3333333  -0.3333333   0.3333333), wk =   0.1481481
        k(   14) = (   0.3333333  -0.3333333  -0.3333333), wk =   0.1481481

     Dense  grid:    84727 G-vectors     FFT dimensions: (  60,  60,  60)

     Estimated max dynamical RAM per process >     450.04 MB

     Check: negative core charge=   -0.000005

     Initial potential from superposition of free atoms

     starting charge      71.9859, renormalised to      72.0000
     Starting wfcs are   52 randomized atomic wfcs
     Checking if some PAW data can be deallocated... 

     total cpu time spent up to now is        4.8 secs

     Self-consistent Calculation

     iteration #  1     ecut=    70.00 Ry     beta= 0.70
     Davidson diagonalization with overlap
     ethr =  1.00E-02,  avg # of iterations =  5.1

     Threshold (ethr) on eigenvalues was too large:
     Diagonalizing with lowered threshold

     Davidson diagonalization with overlap
     ethr =  2.62E-04,  avg # of iterations =  3.1

     total cpu time spent up to now is       20.2 secs

     total energy              =   -1224.11437813 Ry
     estimated scf accuracy    <       0.19033206 Ry

     iteration #  2     ecut=    70.00 Ry     beta= 0.70
     Davidson diagonalization with overlap
     ethr =  2.64E-04,  avg # of iterations =  3.2

     total cpu time spent up to now is       28.8 secs

     total energy              =   -1224.15472467 Ry
     estimated scf accuracy    <       0.04216646 Ry

     iteration #  3     ecut=    70.00 Ry     beta= 0.70
     Davidson diagonalization with overlap
     ethr =  5.86E-05,  avg # of iterations =  2.8

     total cpu time spent up to now is       36.9 secs

     total energy              =   -1224.16324368 Ry
     estimated scf accuracy    <       0.00309124 Ry

     iteration #  4     ecut=    70.00 Ry     beta= 0.70
     Davidson diagonalization with overlap
     ethr =  4.29E-06,  avg # of iterations =  5.1

     total cpu time spent up to now is       46.4 secs

     total energy              =   -1224.16409152 Ry
     estimated scf accuracy    <       0.00146397 Ry

     iteration #  5     ecut=    70.00 Ry     beta= 0.70
     Davidson diagonalization with overlap
     c_bands:  1 eigenvalues not converged
     ethr =  2.03E-06,  avg # of iterations =  4.5

     total cpu time spent up to now is       54.4 secs

     total energy              =   -1224.16435404 Ry
     estimated scf accuracy    <       0.00001340 Ry

     iteration #  6     ecut=    70.00 Ry     beta= 0.70
     Davidson diagonalization with overlap
     ethr =  1.86E-08,  avg # of iterations =  4.4

     total cpu time spent up to now is       62.9 secs

     total energy              =   -1224.16436322 Ry
     estimated scf accuracy    <       0.00000287 Ry

     iteration #  7     ecut=    70.00 Ry     beta= 0.70
     Davidson diagonalization with overlap
     ethr =  3.99E-09,  avg # of iterations =  2.0

     total cpu time spent up to now is       70.2 secs

     End of self-consistent calculation

          k = 0.0000 0.0000 0.0000 ( 10635 PWs)   bands (ev):

    -7.4648  -6.2094  -6.2094  -6.2093  -0.7024  -0.7023  -0.7018  -0.6581
    -0.6581  -0.6581  -0.3144  -0.3140  -0.3139  -0.3133  -0.3132  -0.3129
    -0.1577  -0.1577  -0.0820  -0.0817  -0.0811   0.0554   0.0554   0.0554
     1.0826   1.0826   1.0826   3.4314   3.4314   3.4314   3.4315   3.4315
     3.4316   5.6724   5.6724   5.6724   7.6160   8.9044   8.9044   8.9045
     9.6174   9.6174   9.6174  11.9363  11.9363  11.9363  16.4486  16.4486
    16.4487  17.4758  17.4759  17.4760

          k = 0.0000 0.0000 0.3333 ( 10547 PWs)   bands (ev):

    -7.1919  -6.5707  -6.2047  -6.2046  -0.7194  -0.6938  -0.5896  -0.5896
    -0.5758  -0.5756  -0.4208  -0.4208  -0.3629  -0.3629  -0.2769  -0.2764
    -0.1850  -0.1709  -0.1387  -0.1351  -0.1348  -0.1006   0.1970   0.1970
     1.0563   1.0564   2.1655   3.0114   3.0114   3.0459   3.0460   3.9108
     3.9108   4.0650   4.9944   4.9944   9.3662   9.4337  10.0294  10.3583
    10.3584  10.8193  10.9102  10.9103  12.9989  12.9989  14.5185  14.5185
    14.5312  14.5312  14.8774  14.9124

          k = 0.0000 0.3333 0.0000 ( 10547 PWs)   bands (ev):

    -7.1919  -6.5707  -6.2047  -6.2047  -0.7194  -0.6938  -0.5896  -0.5896
    -0.5759  -0.5755  -0.4208  -0.4208  -0.3629  -0.3629  -0.2773  -0.2760
    -0.1850  -0.1709  -0.1387  -0.1353  -0.1346  -0.1006   0.1970   0.1970
     1.0562   1.0565   2.1655   3.0114   3.0114   3.0459   3.0460   3.9108
     3.9108   4.0650   4.9944   4.9944   9.3662   9.4337  10.0294  10.3584
    10.3584  10.8193  10.9102  10.9103  12.9989  12.9989  14.5185  14.5185
    14.5312  14.5312  14.8774  14.9124

          k = 0.0000 0.3333 0.3333 ( 10575 PWs)   bands (ev):

    -6.9650  -6.4726  -6.4725  -6.2888  -0.6209  -0.5784  -0.5738  -0.5735
    -0.5627  -0.5544  -0.4801  -0.4798  -0.4149  -0.3646  -0.3646  -0.2177
    -0.1790  -0.1428  -0.1355  -0.1353  -0.1332  -0.0848  -0.0842   0.1170
     1.0493   1.6593   1.6593   2.4841   2.8895   3.2037   3.2037   4.1316
     4.1435   4.1436   4.2418   5.2895   9.7979   9.9643  10.8538  10.8539
    10.9489  10.9489  11.7838  12.1319  12.5171  12.5172  12.6852  12.7095
    14.2718  14.5625  15.1518  15.1519

          k = 0.0000 0.3333-0.3333 ( 10575 PWs)   bands (ev):

    -6.9650  -6.4726  -6.4725  -6.2888  -0.6209  -0.5784  -0.5738  -0.5735
    -0.5627  -0.5544  -0.4801  -0.4798  -0.4149  -0.3646  -0.3646  -0.2177
    -0.1790  -0.1428  -0.1355  -0.1353  -0.1332  -0.0848  -0.0842   0.1170
     1.0493   1.6593   1.6593   2.4841   2.8895   3.2037   3.2037   4.1316
     4.1435   4.1436   4.2418   5.2895   9.7979   9.9643  10.8538  10.8539
    10.9489  10.9489  11.7838  12.1319  12.5171  12.5172  12.6851  12.7095
    14.2718  14.5626  15.1518  15.1519

          k = 0.3333 0.0000 0.0000 ( 10547 PWs)   bands (ev):

    -7.1919  -6.5707  -6.2047  -6.2047  -0.7194  -0.6938  -0.5896  -0.5896
    -0.5758  -0.5756  -0.4208  -0.4208  -0.3629  -0.3629  -0.2770  -0.2763
    -0.1850  -0.1709  -0.1387  -0.1352  -0.1348  -0.1006   0.1970   0.1970
     1.0563   1.0564   2.1655   3.0114   3.0114   3.0459   3.0460   3.9108
     3.9108   4.0650   4.9944   4.9944   9.3662   9.4337  10.0294  10.3584
    10.3584  10.8193  10.9102  10.9103  12.9989  12.9989  14.5185  14.5185
    14.5312  14.5321  14.8774  15.3285

          k = 0.3333 0.0000 0.3333 ( 10575 PWs)   bands (ev):

    -6.9650  -6.4725  -6.4725  -6.2888  -0.6209  -0.5784  -0.5739  -0.5734
    -0.5627  -0.5543  -0.4803  -0.4796  -0.4149  -0.3646  -0.3645  -0.2177
    -0.1790  -0.1428  -0.1357  -0.1351  -0.1332  -0.0851  -0.0839   0.1170
     1.0493   1.6593   1.6594   2.4841   2.8895   3.2037   3.2038   4.1316
     4.1434   4.1436   4.2418   5.2895   9.7979   9.9643  10.8538  10.8540
    10.9488  10.9489  11.7838  12.1319  12.5171  12.5172  12.6851  12.7095
    14.2718  14.5625  15.1518  15.1519

          k = 0.3333 0.0000-0.3333 ( 10575 PWs)   bands (ev):

    -6.9650  -6.4725  -6.4725  -6.2888  -0.6209  -0.5784  -0.5739  -0.5734
    -0.5627  -0.5543  -0.4803  -0.4796  -0.4149  -0.3646  -0.3645  -0.2177
    -0.1790  -0.1428  -0.1357  -0.1351  -0.1332  -0.0851  -0.0839   0.1170
     1.0493   1.6593   1.6594   2.4841   2.8895   3.2037   3.2038   4.1316
     4.1434   4.1436   4.2418   5.2895   9.7979   9.9643  10.8538  10.8540
    10.9489  10.9489  11.7838  12.1319  12.5171  12.5172  12.6852  12.7095
    14.2718  14.5625  15.1518  15.1519

          k = 0.3333 0.3333 0.0000 ( 10575 PWs)   bands (ev):

    -6.9650  -6.4726  -6.4725  -6.2888  -0.6209  -0.5784  -0.5737  -0.5736
    -0.5627  -0.5544  -0.4801  -0.4798  -0.4149  -0.3646  -0.3646  -0.2177
    -0.1790  -0.1429  -0.1355  -0.1353  -0.1332  -0.0847  -0.0843   0.1170
     1.0493   1.6593   1.6594   2.4841   2.8895   3.2037   3.2037   4.1316
     4.1435   4.1436   4.2418   5.2895   9.7979   9.9643  10.8538  10.8539
    10.9489  10.9489  11.7838  12.1319  12.5171  12.5172  12.6852  12.7095
    14.2718  14.5625  15.1518  15.1519

          k = 0.3333 0.3333 0.3333 ( 10585 PWs)   bands (ev):

    -6.7953  -6.4553  -6.4553  -6.4552  -0.5639  -0.5639  -0.5530  -0.5524
    -0.5522  -0.5069  -0.4888  -0.4885  -0.4879  -0.2644  -0.2642  -0.2639
    -0.1459  -0.1459  -0.1220  -0.1217  -0.1211  -0.0043  -0.0042  -0.0041
     0.8184   0.8184   0.8184   1.7463   3.8234   3.8236   3.8236   4.4116
     4.4116   4.4117   4.9924   4.9924   8.9659   9.8339   9.8340   9.8341
    11.7397  11.7399  11.7399  12.5798  12.5798  13.3346  13.3733  13.3734
    13.3735  13.9124  13.9124  13.9124

          k = 0.3333 0.3333-0.3333 ( 10585 PWs)   bands (ev):

    -6.7953  -6.4553  -6.4553  -6.4552  -0.5639  -0.5639  -0.5530  -0.5524
    -0.5522  -0.5069  -0.4888  -0.4885  -0.4879  -0.2644  -0.2642  -0.2639
    -0.1459  -0.1459  -0.1220  -0.1217  -0.1211  -0.0043  -0.0042  -0.0041
     0.8184   0.8184   0.8184   1.7463   3.8234   3.8236   3.8236   4.4116
     4.4116   4.4117   4.9924   4.9924   8.9659   9.8339   9.8340   9.8341
    11.7397  11.7399  11.7399  12.5798  12.5798  13.3346  13.3733  13.3734
    13.3735  13.9124  13.9124  13.9124

          k = 0.3333-0.3333 0.0000 ( 10575 PWs)   bands (ev):

    -6.9650  -6.4726  -6.4725  -6.2888  -0.6209  -0.5784  -0.5737  -0.5736
    -0.5627  -0.5544  -0.4801  -0.4798  -0.4149  -0.3646  -0.3645  -0.2177
    -0.1790  -0.1429  -0.1355  -0.1353  -0.1332  -0.0847  -0.0843   0.1170
     1.0493   1.6593   1.6593   2.4841   2.8895   3.2037   3.2037   4.1316
     4.1435   4.1435   4.2418   5.2895   9.7979   9.9643  10.8539  10.8539
    10.9488  10.9489  11.7838  12.1319  12.5171  12.5171  12.6851  12.7095
    14.2718  14.5625  15.1518  15.1519

          k = 0.3333-0.3333 0.3333 ( 10585 PWs)   bands (ev):

    -6.7953  -6.4553  -6.4553  -6.4552  -0.5639  -0.5639  -0.5529  -0.5524
    -0.5522  -0.5069  -0.4888  -0.4885  -0.4880  -0.2644  -0.2642  -0.2639
    -0.1459  -0.1459  -0.1220  -0.1217  -0.1211  -0.0043  -0.0042  -0.0041
     0.8184   0.8184   0.8184   1.7463   3.8234   3.8235   3.8236   4.4116
     4.4116   4.4117   4.9924   4.9924   8.9659   9.8339   9.8340   9.8341
    11.7397  11.7399  11.7399  12.5798  12.5798  13.3346  13.3733  13.3734
    13.3735  13.9124  13.9124  13.9124

          k = 0.3333-0.3333-0.3333 ( 10585 PWs)   bands (ev):

    -6.7953  -6.4553  -6.4553  -6.4552  -0.5639  -0.5639  -0.5530  -0.5524
    -0.5522  -0.5069  -0.4888  -0.4885  -0.4879  -0.2644  -0.2642  -0.2639
    -0.1459  -0.1459  -0.1220  -0.1217  -0.1211  -0.0043  -0.0042  -0.0041
     0.8184   0.8184   0.8184   1.7463   3.8234   3.8235   3.8236   4.4115
     4.4116   4.4117   4.9924   4.9924   8.9659   9.8339   9.8340   9.8341
    11.7397  11.7399  11.7399  12.5798  12.5798  13.3346  13.3733  13.3734
    13.3735  13.9124  13.9124  13.9124

     highest occupied, lowest unoccupied level (ev):     5.6724    7.6160

!    total energy              =   -1224.16436306 Ry
     total all-electron energy =    -17546.279191 Ry
     estimated scf accuracy    <       0.00000073 Ry

     The total energy is the sum of the following terms:
     one-electron contribution =    -340.84961693 Ry
     hartree contribution      =     243.50998911 Ry
     xc contribution           =    -207.02336353 Ry
     ewald contribution        =    -368.01682013 Ry
     one-center paw contrib.   =    -551.78455157 Ry

     convergence has been achieved in   7 iterations

     Writing all to output data dir ./bn.save/

     init_run     :      4.34s CPU      4.64s WALL (       1 calls)
     electrons    :     61.62s CPU     65.38s WALL (       1 calls)

     Called by init_run:
     wfcinit      :      2.50s CPU      2.59s WALL (       1 calls)
     potinit      :      0.75s CPU      0.80s WALL (       1 calls)
     hinit0       :      0.78s CPU      0.79s WALL (       1 calls)

     Called by electrons:
     c_bands      :     45.37s CPU     46.77s WALL (       8 calls)
     sum_band     :      9.03s CPU     10.38s WALL (       8 calls)
     v_of_rho     :      0.52s CPU      0.55s WALL (       8 calls)
     newd         :      2.17s CPU      3.26s WALL (       8 calls)
     PAW_pot      :      5.49s CPU      5.53s WALL (       8 calls)
     mix_rho      :      0.04s CPU      0.05s WALL (       8 calls)

     Called by c_bands:
     init_us_2    :      0.87s CPU      0.88s WALL (     238 calls)
     init_us_2:cp :      0.87s CPU      0.88s WALL (     238 calls)
     cegterg      :     43.14s CPU     44.46s WALL (     112 calls)

     Called by *egterg:
     cdiaghg      :      1.06s CPU      1.07s WALL (     523 calls)
     h_psi        :     32.03s CPU     32.74s WALL (     551 calls)
     s_psi        :      2.75s CPU      2.78s WALL (     551 calls)
     g_psi        :      0.31s CPU      0.32s WALL (     425 calls)

     Called by h_psi:
     h_psi:calbec :      3.05s CPU      3.09s WALL (     551 calls)
     vloc_psi     :     25.92s CPU     26.15s WALL (     551 calls)
     add_vuspsi   :      2.80s CPU      2.82s WALL (     551 calls)

     General routines
     calbec       :      3.99s CPU      4.03s WALL (     663 calls)
     fft          :      0.50s CPU      0.51s WALL (      89 calls)
     ffts         :      0.01s CPU      0.01s WALL (       8 calls)
     fftw         :     24.08s CPU     24.26s WALL (   38144 calls)

     Parallel routines

     PWSCF        :   1m 6.13s CPU   1m10.94s WALL


   This run was terminated on:  16:20:47   3Jul2024            

=------------------------------------------------------------------------------=
   JOB DONE.
=------------------------------------------------------------------------------=
