
     Program PWSCF v.6.8 starts on  5Mar2024 at 15:48:15 

     This program is part of the open-source Quantum ESPRESSO suite
     for quantum simulation of materials; please cite
         "P. Giannozzi et al., J. Phys.:Condens. Matter 21 395502 (2009);
         "P. Giannozzi et al., J. Phys.:Condens. Matter 29 465901 (2017);
         "P. Giannozzi et al., J. Chem. Phys. 152 154105 (2020);
          URL http://www.quantum-espresso.org", 
     in publications or presentations arising from this work. More details at
     http://www.quantum-espresso.org/quote

     Parallel version (MPI), running on     1 processors

     MPI processes distributed on     1 nodes
     5687 MiB available memory on the printing compute node when the environment starts

     Waiting for input...
     Reading input from standard input
     Message from routine read_cards :
     DEPRECATED: no units specified in ATOMIC_POSITIONS card
     Message from routine read_cards :
     ATOMIC_POSITIONS: units set to alat

     Current dimensions of program PWSCF are:
     Max number of different atomic species (ntypx) = 10
     Max number of k-points (npk) =  40000
     Max angular momentum in pseudopotentials (lmaxx) =  4
     file C.pbe-n-kjpaw_psl.0.1.UPF: wavefunction(s)  2P renormalized

     Subspace diagonalization in iterative solution of the eigenvalue problem:
     a serial algorithm will be used


     G-vector sticks info
     --------------------
     sticks:   dense  smooth     PW     G-vecs:    dense   smooth      PW
     Sum         253     253     91                 2685     2685     561

     Using Slab Decomposition



     bravais-lattice index     =            2
     lattice parameter (alat)  =       6.7460  a.u.
     unit-cell volume          =      76.7501 (a.u.)^3
     number of atoms/cell      =            2
     number of atomic types    =            1
     number of electrons       =         8.00
     number of Kohn-Sham states=            8
     kinetic-energy cutoff     =      40.0000  Ry
     charge density cutoff     =     160.0000  Ry
     scf convergence threshold =      1.0E-06
     mixing beta               =       0.7000
     number of iterations used =            8  plain     mixing
     Exchange-correlation= SLA  PW   PBX  PBC
                           (   1   4   3   4   0   0   0)

     celldm(1)=   6.746000  celldm(2)=   0.000000  celldm(3)=   0.000000
     celldm(4)=   0.000000  celldm(5)=   0.000000  celldm(6)=   0.000000

     crystal axes: (cart. coord. in units of alat)
               a(1) = (  -0.500000   0.000000   0.500000 )  
               a(2) = (   0.000000   0.500000   0.500000 )  
               a(3) = (  -0.500000   0.500000   0.000000 )  

     reciprocal axes: (cart. coord. in units 2 pi/alat)
               b(1) = ( -1.000000 -1.000000  1.000000 )  
               b(2) = (  1.000000  1.000000  1.000000 )  
               b(3) = ( -1.000000  1.000000 -1.000000 )  


     PseudoPot. # 1 for C  read from file:
     ./C.pbe-n-kjpaw_psl.0.1.UPF
     MD5 check sum: c849119b86527ef673bbe9c4f1f1b6ab
     Pseudo is Projector augmented-wave + core cor, Zval =  4.0
     Generated using "atomic" code by A. Dal Corso  v.5.0.2 svn rev. 9415
     Shape of augmentation charge: BESSEL
     Using radial grid of 1073 points,  4 beta functions with: 
                l(1) =   0
                l(2) =   0
                l(3) =   1
                l(4) =   1
     Q(r) pseudized with 0 coefficients 


     atomic species   valence    mass     pseudopotential
        C              4.00    12.01100     C ( 1.00)

     No symmetry found



   Cartesian axes

     site n.     atom                  positions (alat units)
         1           C   tau(   1) = (   0.0000000   0.0000000   0.0000000  )
         2           C   tau(   2) = (   0.2500000   0.2500000   0.2500000  )

     number of k points=   343 (tetrahedron method)

     Number of k-points >= 100: set verbosity='high' to print them.

     Dense  grid:     2685 G-vectors     FFT dimensions: (  20,  20,  20)

     Estimated max dynamical RAM per process >      17.65 MB

     Check: negative core charge=   -0.000045

     Initial potential from superposition of free atoms

     starting charge    7.99992, renormalised to    8.00000
     Starting wfcs are    8 randomized atomic wfcs
     Checking if some PAW data can be deallocated... 

     total cpu time spent up to now is        0.7 secs

     Self-consistent Calculation

     iteration #  1     ecut=    40.00 Ry     beta= 0.70
     Davidson diagonalization with overlap
     ethr =  1.00E-02,  avg # of iterations =  5.0

     total cpu time spent up to now is        3.0 secs

     total energy              =     -36.83828855 Ry
     estimated scf accuracy    <       0.08013771 Ry

     iteration #  2     ecut=    40.00 Ry     beta= 0.70
     Davidson diagonalization with overlap
     ethr =  1.00E-03,  avg # of iterations =  3.0

     total cpu time spent up to now is        4.7 secs

     total energy              =     -36.86214128 Ry
     estimated scf accuracy    <       0.00831490 Ry

     iteration #  3     ecut=    40.00 Ry     beta= 0.70
     Davidson diagonalization with overlap
     ethr =  1.04E-04,  avg # of iterations =  5.3

     total cpu time spent up to now is        7.2 secs

     total energy              =     -36.86779921 Ry
     estimated scf accuracy    <       0.00043017 Ry

     iteration #  4     ecut=    40.00 Ry     beta= 0.70
     Davidson diagonalization with overlap
     ethr =  5.38E-06,  avg # of iterations =  7.3

     total cpu time spent up to now is       10.3 secs

     total energy              =     -36.86803515 Ry
     estimated scf accuracy    <       0.00085159 Ry

     iteration #  5     ecut=    40.00 Ry     beta= 0.70
     Davidson diagonalization with overlap
     ethr =  5.38E-06,  avg # of iterations =  1.1

     total cpu time spent up to now is       11.6 secs

     total energy              =     -36.86801753 Ry
     estimated scf accuracy    <       0.00019857 Ry

     iteration #  6     ecut=    40.00 Ry     beta= 0.70
     Davidson diagonalization with overlap
     ethr =  2.48E-06,  avg # of iterations =  1.8

     total cpu time spent up to now is       13.0 secs

     total energy              =     -36.86802596 Ry
     estimated scf accuracy    <       0.00009059 Ry

     iteration #  7     ecut=    40.00 Ry     beta= 0.70
     Davidson diagonalization with overlap
     ethr =  1.13E-06,  avg # of iterations =  1.2

     total cpu time spent up to now is       14.3 secs

     total energy              =     -36.86802852 Ry
     estimated scf accuracy    <       0.00006101 Ry

     iteration #  8     ecut=    40.00 Ry     beta= 0.70
     Davidson diagonalization with overlap
     ethr =  7.63E-07,  avg # of iterations =  1.0

     total cpu time spent up to now is       15.5 secs

     total energy              =     -36.86802854 Ry
     estimated scf accuracy    <       0.00005156 Ry

     iteration #  9     ecut=    40.00 Ry     beta= 0.70
     Davidson diagonalization with overlap
     ethr =  6.45E-07,  avg # of iterations =  1.0

     total cpu time spent up to now is       16.8 secs

     total energy              =     -36.86803039 Ry
     estimated scf accuracy    <       0.00004432 Ry

     iteration # 10     ecut=    40.00 Ry     beta= 0.70
     Davidson diagonalization with overlap
     ethr =  5.54E-07,  avg # of iterations =  1.0

     total cpu time spent up to now is       18.0 secs

     total energy              =     -36.86801705 Ry
     estimated scf accuracy    <       0.00004528 Ry

     iteration # 11     ecut=    40.00 Ry     beta= 0.70
     Davidson diagonalization with overlap
     ethr =  5.54E-07,  avg # of iterations =  1.0

     total cpu time spent up to now is       19.2 secs

     total energy              =     -36.86801718 Ry
     estimated scf accuracy    <       0.00001002 Ry

     iteration # 12     ecut=    40.00 Ry     beta= 0.70
     Davidson diagonalization with overlap
     ethr =  1.25E-07,  avg # of iterations =  1.9

     total cpu time spent up to now is       20.6 secs

     total energy              =     -36.86801654 Ry
     estimated scf accuracy    <       0.00000497 Ry

     iteration # 13     ecut=    40.00 Ry     beta= 0.70
     Davidson diagonalization with overlap
     ethr =  6.21E-08,  avg # of iterations =  1.9

     total cpu time spent up to now is       22.0 secs

     End of self-consistent calculation

     Number of k-points >= 100: set verbosity='high' to print the bands.

     the Fermi energy is    15.4706 ev

!    total energy              =     -36.86801704 Ry

     total all-electron energy =      -152.396220 Ry
     estimated scf accuracy    <       0.00000058 Ry

     The total energy is the sum of the following terms:
     one-electron contribution =       8.43571734 Ry
     hartree contribution      =       1.93575694 Ry
     xc contribution           =      -8.38775225 Ry
     ewald contribution        =     -25.55255532 Ry
     one-center paw contrib.   =     -13.29918374 Ry

     convergence has been achieved in  13 iterations

     Writing output data file ./diamond.save/

     init_run     :      0.61s CPU      0.65s WALL (       1 calls)
     electrons    :     20.02s CPU     21.34s WALL (       1 calls)

     Called by init_run:
     wfcinit      :      0.50s CPU      0.51s WALL (       1 calls)
     potinit      :      0.03s CPU      0.05s WALL (       1 calls)
     hinit0       :      0.08s CPU      0.08s WALL (       1 calls)

     Called by electrons:
     c_bands      :     16.94s CPU     17.99s WALL (      13 calls)
     sum_band     :      2.58s CPU      2.71s WALL (      13 calls)
     v_of_rho     :      0.02s CPU      0.03s WALL (      14 calls)
     newd         :      0.00s CPU      0.03s WALL (      14 calls)
     PAW_pot      :      0.50s CPU      0.62s WALL (      14 calls)
     mix_rho      :      0.02s CPU      0.00s WALL (      13 calls)

     Called by c_bands:
     init_us_2    :      0.33s CPU      0.36s WALL (    9261 calls)
     cegterg      :     16.55s CPU     17.17s WALL (    4459 calls)

     Called by *egterg:
     cdiaghg      :      0.59s CPU      0.74s WALL (   15623 calls)
     h_psi        :     13.45s CPU     13.63s WALL (   15966 calls)
     s_psi        :      0.45s CPU      0.61s WALL (   15966 calls)
     g_psi        :      0.08s CPU      0.07s WALL (   11164 calls)

     Called by h_psi:
     h_psi:calbec :      0.75s CPU      0.65s WALL (   15966 calls)
     vloc_psi     :     12.05s CPU     12.23s WALL (   15966 calls)
     add_vuspsi   :      0.55s CPU      0.61s WALL (   15966 calls)

     General routines
     calbec       :      0.91s CPU      0.82s WALL (   20425 calls)
     fft          :      0.02s CPU      0.01s WALL (     154 calls)
     ffts         :      0.00s CPU      0.00s WALL (      13 calls)
     fftw         :     12.84s CPU     12.98s WALL (  233264 calls)

     Parallel routines

     PWSCF        :     20.81s CPU     22.48s WALL


   This run was terminated on:  15:48:37   5Mar2024            

=------------------------------------------------------------------------------=
   JOB DONE.
=------------------------------------------------------------------------------=
