ESCALE ; pCOOP file generated by LOBSTER. Energy is shifted such that the Fermi level lies at 0 eV.
        25          1        402  -7.48075e+00   1.26195e+01   2.54431e+00 
Average
No.1:Na1->Na6(2.9527298623758895)
No.2:Na1->O7(2.3705816336774133)
No.3:Na1->O11(2.3705816336774133)
No.4:Na2->Na4(2.9527298623730314)
No.5:Na2->O8(2.3705816336809282)
No.6:Na2->O12(2.3705816336809282)
No.7:Na3->Na4(2.9709892205909476)
No.8:Na3->Na5(2.9527298623730602)
No.9:Na3->Na6(2.9709892205876312)
No.10:Na3->O7(2.3705821168999592)