  12   12    1    1
  1.3570130e+02   6.0157877e-10   6.0157877e-10   4.3298055e-10   0.0000000e+00
            0.000000e+00
  CAR
 DOS and projected DOS file by LOBSTER. Energy is shifted such that the Fermi level lies at 0 eV. 
     12.61949820      -7.48075243   402       2.54431023       1.00000000
-10.02506   0.00000  11.99988
 -9.97494   0.00000  11.99988
 -9.92481   0.00000  11.99988
 -9.87469   0.00000  11.99988
 -9.82456   0.00000  11.99988
 -9.77444   0.00000  11.99988
 -9.72431   0.00000  11.99988
 -9.67419   0.00000  11.99988
 -9.62406   0.00000  11.99988
 -9.57393   0.00000  11.99988
 -9.52381   0.00000  11.99988
 -9.47368   0.00000  11.99988
 -9.42356   0.00000  11.99988
 -9.37343   0.00000  11.99988
 -9.32331   0.00000  11.99988
 -9.27318   0.00000  11.99988
 -9.22306   0.00000  11.99988
 -9.17293   0.00000  11.99988
 -9.12281   0.00000  11.99988
 -9.07268   0.00000  11.99988
 -9.02256   0.00000  11.99988
 -8.97243   0.00000  11.99988
 -8.92231   0.00000  11.99988
 -8.87218   0.00000  11.99988
 -8.82206   0.00000  11.99988
 -8.77193   0.00000  11.99988
 -8.72180   0.00000  11.99988
 -8.67168   0.00000  11.99988
 -8.62155   0.00000  11.99988
 -8.57143   0.00000  11.99988
 -8.52130   0.00000  11.99988
 -8.47118   0.00000  11.99988
 -8.42105   0.00000  11.99988
 -8.37093   0.00000  11.99988
 -8.32080   0.00000  11.99988
 -8.27068   0.00000  11.99988
 -8.22055   0.00000  11.99988
 -8.17043   0.00000  11.99988
 -8.12030   0.00000  11.99988
 -8.07018   0.00000  11.99988
 -8.02005   0.00000  11.99988
 -7.96992   0.00000  11.99988
 -7.91980   0.00000  11.99988
 -7.86967   0.00000  11.99988
 -7.81955   0.00000  11.99988
 -7.76942   0.00000  11.99988
 -7.71930   0.00000  11.99988
 -7.66917   0.00000  11.99988
 -7.61905   0.00000  11.99988
 -7.56892   0.00000  11.99988
 -7.51880   0.00000  11.99988
 -7.46867   0.00000  11.99988
 -7.41855   0.00000  11.99988
 -7.36842   0.00000  11.99988
 -7.31830   0.00000  11.99988
 -7.26817   0.00000  11.99988
 -7.21805   0.00000  11.99988
 -7.16792   0.00000  11.99988
 -7.11779   0.00000  11.99988
 -7.06767   0.00000  11.99988
 -7.01754   0.00000  11.99988
 -6.96742   0.00000  11.99988
 -6.91729   0.00000  11.99988
 -6.86717   0.00000  11.99988
 -6.81704   0.00000  11.99988
 -6.76692   0.00000  11.99988
 -6.71679   0.00000  11.99988
 -6.66667   0.00000  11.99988
 -6.61654   0.00000  11.99988
 -6.56642   0.00000  11.99988
 -6.51629   0.00000  11.99988
 -6.46617   0.00000  11.99988
 -6.41604   0.00000  11.99988
 -6.36591   0.00000  11.99988
 -6.31579   0.00000  11.99988
 -6.26566   0.33236  12.01654
 -6.21554   5.09172  12.27176
 -6.16541   2.28229  12.38616
 -6.11529   6.18848  12.69636
 -6.06516   3.98748  12.89624
 -6.01504   3.98122  13.09580
 -5.96491   5.55513  13.37425
 -5.91479   5.17063  13.63343
 -5.86466   4.62537  13.86528
 -5.81454   3.96191  14.06387
 -5.76441   3.64920  14.24679
 -5.71429   3.39861  14.41714
 -5.66416   3.24779  14.57994
 -5.61404   3.21678  14.74118
 -5.56391   3.11101  14.89712
 -5.51378   3.04005  15.04951
 -5.46366   3.02921  15.20135
 -5.41353   3.01014  15.35223
 -5.36341   3.00459  15.50283
 -5.31328   3.08583  15.65751
 -5.26316   3.20346  15.81809
 -5.21303   3.20352  15.97866
 -5.16291   3.22798  16.14047
 -5.11278   3.45298  16.31355
 -5.06266   4.37379  16.53279
 -5.01253   4.48073  16.75739
 -4.96241   5.92927  17.05459
 -4.91228   3.08466  17.20921
 -4.86216   5.17786  17.46875
 -4.81203   6.66342  17.80276
 -4.76190  10.31955  18.32003
 -4.71178   6.25322  18.63347
 -4.66165   5.65476  18.91692
 -4.61153   7.30238  19.28296
 -4.56140   6.89802  19.62872
 -4.51128   6.67467  19.96329
 -4.46115   7.06131  20.31724
 -4.41103   6.82384  20.65929
 -4.36090   7.31273  21.02584
 -4.31078   9.41021  21.49753
 -4.26065   7.84627  21.89083
 -4.21053   8.09844  22.29676
 -4.16040  10.50860  22.82351
 -4.11028  13.32017  23.49119
 -4.06015  15.86804  24.28658
 -4.01003   9.84239  24.77993
 -3.95990   6.04441  25.08291
 -3.90977   6.07618  25.38748
 -3.85965   7.01622  25.73917
 -3.80952  10.41688  26.26132
 -3.75940  18.76203  27.20177
 -3.70927  10.09622  27.70785
 -3.65915   4.54411  27.93562
 -3.60902  14.05300  28.64003
 -3.55890  19.91566  29.63831
 -3.50877   6.72282  29.97530
 -3.45865   0.48684  29.99970
 -3.40852   0.00000  29.99970
 -3.35840   0.00000  29.99970
 -3.30827   0.00000  29.99970
 -3.25815   0.00000  29.99970
 -3.20802   0.00000  29.99970
 -3.15789   0.00000  29.99970
 -3.10777   0.00000  29.99970
 -3.05764   0.00000  29.99970
 -3.00752   0.00000  29.99970
 -2.95739   0.00000  29.99970
 -2.90727   0.00000  29.99970
 -2.85714   0.00000  29.99970
 -2.80702   0.00000  29.99970
 -2.75689   0.00000  29.99970
 -2.70677   0.00000  29.99970
 -2.65664   0.00000  29.99970
 -2.60652   0.00000  29.99970
 -2.55639   0.00000  29.99970
 -2.50627   0.00000  29.99970
 -2.45614   0.00000  29.99970
 -2.40602   0.00000  29.99970
 -2.35589   0.00000  29.99970
 -2.30576   0.00000  29.99970
 -2.25564   0.00000  29.99970
 -2.20551   0.00000  29.99970
 -2.15539   0.00000  29.99970
 -2.10526   0.00000  29.99970
 -2.05514   0.00000  29.99970
 -2.00501   0.00000  29.99970
 -1.95489   0.00000  29.99970
 -1.90476   0.00000  29.99970
 -1.85464   0.00000  29.99970
 -1.80451   0.00000  29.99970
 -1.75439   0.00000  29.99970
 -1.70426   0.00000  29.99970
 -1.65414   0.00000  29.99970
 -1.60401   0.00000  29.99970
 -1.55388   0.00000  29.99970
 -1.50376   0.00000  29.99970
 -1.45363   0.00000  29.99970
 -1.40351   0.00000  29.99970
 -1.35338   0.00000  29.99970
 -1.30326   0.00000  29.99970
 -1.25313   0.85466  30.04254
 -1.20301   1.90625  30.13809
 -1.15288   4.98979  30.38821
 -1.10276   5.42849  30.66031
 -1.05263   6.06151  30.96415
 -1.00251   6.98495  31.31427
 -0.95238   7.25842  31.67810
 -0.90226   7.60423  32.05926
 -0.85213   7.46968  32.43368
 -0.80201  15.01705  33.18642
 -0.75188  19.36241  34.15696
 -0.70175  17.66734  35.04255
 -0.65163  15.49126  35.81905
 -0.60150  11.93847  36.41747
 -0.55138  11.10228  36.97397
 -0.50125  10.52518  37.50155
 -0.45113  16.09651  38.30840
 -0.40100  14.54118  39.03728
 -0.35088  12.68006  39.67287
 -0.30075  10.84685  40.21657
 -0.25063  11.85892  40.81100
 -0.20050   8.34944  41.22952
 -0.15038   6.45873  41.55327
 -0.10025   4.57156  41.78242
 -0.05013   3.08870  41.93724
  0.00000   1.24369  41.99958
  0.05013   0.00000  41.99958
  0.10025   0.00000  41.99958
  0.15038   0.00000  41.99958
  0.20050   0.00000  41.99958
  0.25063   0.00000  41.99958
  0.30075   0.00000  41.99958
  0.35088   0.00000  41.99958
  0.40100   0.00000  41.99958
  0.45113   0.00000  41.99958
  0.50125   0.00000  41.99958
  0.55138   0.00000  41.99958
  0.60150   0.00000  41.99958
  0.65163   0.00000  41.99958
  0.70175   0.00000  41.99958
  0.75188   0.00000  41.99958
  0.80201   0.00000  41.99958
  0.85213   0.00000  41.99958
  0.90226   0.00000  41.99958
  0.95238   0.00000  41.99958
  1.00251   0.00000  41.99958
  1.05263   0.00000  41.99958
  1.10276   0.00000  41.99958
  1.15288   0.00000  41.99958
  1.20301   0.00000  41.99958
  1.25313   0.00000  41.99958
  1.30326   0.00000  41.99958
  1.35338   0.00000  41.99958
  1.40351   0.00000  41.99958
  1.45363   0.00000  41.99958
  1.50376   0.00000  41.99958
  1.55388   0.00000  41.99958
  1.60401   0.00000  41.99958
  1.65414   0.00000  41.99958
  1.70426   0.00000  41.99958
  1.75439   0.00000  41.99958
  1.80451   0.00000  41.99958
  1.85464   0.00000  41.99958
  1.90476   0.00000  41.99958
  1.95489   0.09086  42.00413
  2.00501   0.19719  42.01402
  2.05514   0.29458  42.02878
  2.10526   0.38789  42.04823
  2.15539   0.48419  42.07250
  2.20551   0.58534  42.10184
  2.25564   0.69445  42.13665
  2.30576   0.83834  42.17867
  2.35589   1.04082  42.23084
  2.40602   1.45789  42.30392
  2.45614   1.38764  42.37347
  2.50627   1.15831  42.43153
  2.55639   1.40773  42.50210
  2.60652   2.26434  42.61560
  2.65664   3.05077  42.76852
  2.70677   4.47233  42.99270
  2.75689   3.69198  43.17776
  2.80702   3.63575  43.36000
  2.85714   3.23874  43.52234
  2.90727   2.70020  43.65769
  2.95739   2.44660  43.78033
  3.00752   2.33079  43.89716
  3.05764   2.30353  44.01263
  3.10777   2.26326  44.12607
  3.15789   2.19103  44.23590
  3.20802   2.12113  44.34222
  3.25815   2.01182  44.44306
  3.30827   1.99372  44.54300
  3.35840   2.01881  44.64419
  3.40852   2.08842  44.74888
  3.45865   2.15471  44.85688
  3.50877   2.10572  44.96243
  3.55890   2.07941  45.06666
  3.60902   2.05396  45.16962
  3.65915   2.01378  45.27056
  3.70927   1.97777  45.36970
  3.75940   1.95721  45.46780
  3.80952   1.94423  45.56526
  3.85965   1.93637  45.66232
  3.90977   1.92514  45.75882
  3.95990   1.91368  45.85474
  4.01003   1.91183  45.95057
  4.06015   1.91997  46.04681
  4.11028   1.93979  46.14404
  4.16040   1.94092  46.24133
  4.21053   1.92970  46.33806
  4.26065   1.91842  46.43422
  4.31078   1.91097  46.53001
  4.36090   1.90827  46.62566
  4.41103   1.97560  46.72469
  4.46115   2.11483  46.83070
  4.51128   2.25303  46.94363
  4.56140   2.34715  47.06128
  4.61153   2.35983  47.17957
  4.66165   2.42815  47.30128
  4.71178   3.44244  47.47383
  4.76190   5.38898  47.74396
  4.81203   4.98281  47.99372
  4.86216   2.55123  48.12160
  4.91228   3.05688  48.27483
  4.96241   3.90383  48.47051
  5.01253   2.16371  48.57897
  5.06266   1.66736  48.66254
  5.11278   1.52873  48.73917
  5.16291   1.43761  48.81123
  5.21303   1.45563  48.88420
  5.26316   1.37748  48.95324
  5.31328   1.26295  49.01655
  5.36341   1.24066  49.07874
  5.41353   1.26696  49.14225
  5.46366   1.39615  49.21223
  5.51378   1.48691  49.28676
  5.56391   1.55988  49.36495
  5.61404   1.68877  49.44960
  5.66416   1.70512  49.53507
  5.71429   1.70848  49.62071
  5.76441   1.77821  49.70984
  5.81454   1.80314  49.80022
  5.86466   1.83735  49.89232
  5.91479   1.88850  49.98698
  5.96491   1.94459  50.08446
  6.01504   2.11392  50.19042
  6.06516   2.26981  50.30419
  6.11529   2.44409  50.42670
  6.16541   2.59274  50.55666
  6.21554   2.82091  50.69806
  6.26566   3.22151  50.85954
  6.31579   3.40532  51.03023
  6.36591   3.50634  51.20599
  6.41604   3.71265  51.39209
  6.46617   3.49758  51.56741
  6.51629   3.62095  51.74891
  6.56642   3.90962  51.94488
  6.61654   4.30755  52.16079
  6.66667   4.53147  52.38794
  6.71679   3.52055  52.56440
  6.76692   3.12531  52.72106
  6.81704   2.88506  52.86568
  6.86717   2.35030  52.98349
  6.91729   1.92207  53.07983
  6.96742   1.73514  53.16680
  7.01754   1.60704  53.24736
  7.06767   1.51954  53.32353
  7.11779   1.47167  53.39729
  7.16792   1.54755  53.47487
  7.21805   2.26742  53.58852
  7.26817   4.69479  53.82385
  7.31830   7.32709  54.19112
  7.36842   8.80734  54.63259
  7.41855  10.85388  55.17665
  7.46867   9.31941  55.64378
  7.51880   8.91379  56.09059
  7.56892   8.59590  56.52146
  7.61905   8.32836  56.93892
  7.66917   7.35378  57.30753
  7.71930   8.21449  57.71929
  7.76942   4.54293  57.94700
  7.81955   7.51570  58.32373
  7.86967  11.10396  58.88032
  7.91980   7.64682  59.26362
  7.96992   4.27629  59.47797
  8.02005   2.96914  59.62680
  8.07018   2.09924  59.73202
  8.12030   1.28060  59.79621
  8.17043   0.97584  59.84513
  8.22055   0.79132  59.88479
  8.27068   0.64993  59.91737
  8.32080   0.57208  59.94605
  8.37093   0.48390  59.97030
  8.42105   0.34624  59.98766
  8.47118   0.18532  59.99695
  8.52130   0.04893  59.99940
  8.57143   0.00000  59.99940
  8.62155   0.00000  59.99940
  8.67168   0.00000  59.99940
  8.72180   0.00000  59.99940
  8.77193   0.00000  59.99940
  8.82206   0.00000  59.99940
  8.87218   0.00000  59.99940
  8.92231   0.00000  59.99940
  8.97243   0.00000  59.99940
  9.02256   0.00000  59.99940
  9.07268   0.00000  59.99940
  9.12281   0.00000  59.99940
  9.17293   0.00000  59.99940
  9.22306   0.00000  59.99940
  9.27318   0.00000  59.99940
  9.32331   0.00000  59.99940
  9.37343   0.00000  59.99940
  9.42356   0.00000  59.99940
  9.47368   0.00000  59.99940
  9.52381   0.00000  59.99940
  9.57393   0.00000  59.99940
  9.62406   0.00000  59.99940
  9.67419   0.00000  59.99940
  9.72431   0.00000  59.99940
  9.77444   0.00000  59.99940
  9.82456   0.00000  59.99940
  9.87469   0.00000  59.99940
  9.92481   0.00000  59.99940
  9.97494   0.00000  59.99940
 10.02506   0.00000  59.99940
 10.07519   0.00000  59.99940
     10.07518797     -10.02506266   402       2.54431023       1.00000000; Z= 11; 3s 
-10.02506   0.00000
 -9.97494   0.00000
 -9.92481   0.00000
 -9.87469   0.00000
 -9.82456   0.00000
 -9.77444   0.00000
 -9.72431   0.00000
 -9.67419   0.00000
 -9.62406   0.00000
 -9.57393   0.00000
 -9.52381   0.00000
 -9.47368   0.00000
 -9.42356   0.00000
 -9.37343   0.00000
 -9.32331   0.00000
 -9.27318   0.00000
 -9.22306   0.00000
 -9.17293   0.00000
 -9.12281   0.00000
 -9.07268   0.00000
 -9.02256   0.00000
 -8.97243   0.00000
 -8.92231   0.00000
 -8.87218   0.00000
 -8.82206   0.00000
 -8.77193   0.00000
 -8.72180   0.00000
 -8.67168   0.00000
 -8.62155   0.00000
 -8.57143   0.00000
 -8.52130   0.00000
 -8.47118   0.00000
 -8.42105   0.00000
 -8.37093   0.00000
 -8.32080   0.00000
 -8.27068   0.00000
 -8.22055   0.00000
 -8.17043   0.00000
 -8.12030   0.00000
 -8.07018   0.00000
 -8.02005   0.00000
 -7.96992   0.00000
 -7.91980   0.00000
 -7.86967   0.00000
 -7.81955   0.00000
 -7.76942   0.00000
 -7.71930   0.00000
 -7.66917   0.00000
 -7.61905   0.00000
 -7.56892   0.00000
 -7.51880   0.00000
 -7.46867   0.00000
 -7.41855   0.00000
 -7.36842   0.00000
 -7.31830   0.00000
 -7.26817   0.00000
 -7.21805   0.00000
 -7.16792   0.00000
 -7.11779   0.00000
 -7.06767   0.00000
 -7.01754   0.00000
 -6.96742   0.00000
 -6.91729   0.00000
 -6.86717   0.00000
 -6.81704   0.00000
 -6.76692   0.00000
 -6.71679   0.00000
 -6.66667   0.00000
 -6.61654   0.00000
 -6.56642   0.00000
 -6.51629   0.00000
 -6.46617   0.00000
 -6.41604   0.00000
 -6.36591   0.00000
 -6.31579   0.00000
 -6.26566   0.00054
 -6.21554  -0.00146
 -6.16541   0.01417
 -6.11529   0.13143
 -6.06516   0.06013
 -6.01504   0.06311
 -5.96491   0.08184
 -5.91479   0.05726
 -5.86466   0.04750
 -5.81454   0.04334
 -5.76441   0.03844
 -5.71429   0.03376
 -5.66416   0.02876
 -5.61404   0.02742
 -5.56391   0.02531
 -5.51378   0.02400
 -5.46366   0.02310
 -5.41353   0.02023
 -5.36341   0.01889
 -5.31328   0.01786
 -5.26316   0.01746
 -5.21303   0.01675
 -5.16291   0.01591
 -5.11278   0.01485
 -5.06266   0.01722
 -5.01253   0.01602
 -4.96241   0.02104
 -4.91228   0.01632
 -4.86216   0.04519
 -4.81203   0.06092
 -4.76190   0.07986
 -4.71178   0.07749
 -4.66165   0.10559
 -4.61153   0.12910
 -4.56140   0.11275
 -4.51128   0.09581
 -4.46115   0.08728
 -4.41103   0.07241
 -4.36090   0.06387
 -4.31078   0.06130
 -4.26065   0.05362
 -4.21053   0.05593
 -4.16040   0.08079
 -4.11028   0.12234
 -4.06015   0.08917
 -4.01003   0.04079
 -3.95990   0.01839
 -3.90977   0.01245
 -3.85965   0.00752
 -3.80952   0.00068
 -3.75940  -0.00828
 -3.70927  -0.00500
 -3.65915   0.00108
 -3.60902   0.00514
 -3.55890   0.00662
 -3.50877   0.00021
 -3.45865   0.00000
 -3.40852   0.00000
 -3.35840   0.00000
 -3.30827   0.00000
 -3.25815   0.00000
 -3.20802   0.00000
 -3.15789   0.00000
 -3.10777   0.00000
 -3.05764   0.00000
 -3.00752   0.00000
 -2.95739   0.00000
 -2.90727   0.00000
 -2.85714   0.00000
 -2.80702   0.00000
 -2.75689   0.00000
 -2.70677   0.00000
 -2.65664   0.00000
 -2.60652   0.00000
 -2.55639   0.00000
 -2.50627   0.00000
 -2.45614   0.00000
 -2.40602   0.00000
 -2.35589   0.00000
 -2.30576   0.00000
 -2.25564   0.00000
 -2.20551   0.00000
 -2.15539   0.00000
 -2.10526   0.00000
 -2.05514   0.00000
 -2.00501   0.00000
 -1.95489   0.00000
 -1.90476   0.00000
 -1.85464   0.00000
 -1.80451   0.00000
 -1.75439   0.00000
 -1.70426   0.00000
 -1.65414   0.00000
 -1.60401   0.00000
 -1.55388   0.00000
 -1.50376   0.00000
 -1.45363   0.00000
 -1.40351   0.00000
 -1.35338   0.00000
 -1.30326   0.00000
 -1.25313   0.03603
 -1.20301   0.07720
 -1.15288   0.18523
 -1.10276   0.15818
 -1.05263   0.14602
 -1.00251   0.14895
 -0.95238   0.12247
 -0.90226   0.10059
 -0.85213   0.06725
 -0.80201   0.04855
 -0.75188   0.04252
 -0.70175   0.05284
 -0.65163   0.07451
 -0.60150   0.05728
 -0.55138   0.04668
 -0.50125   0.03860
 -0.45113   0.03287
 -0.40100   0.02672
 -0.35088   0.02140
 -0.30075   0.01633
 -0.25063   0.01129
 -0.20050   0.00676
 -0.15038   0.00440
 -0.10025   0.00255
 -0.05013   0.00108
  0.00000   0.00020
  0.05013   0.00000
  0.10025   0.00000
  0.15038   0.00000
  0.20050   0.00000
  0.25063   0.00000
  0.30075   0.00000
  0.35088   0.00000
  0.40100   0.00000
  0.45113   0.00000
  0.50125   0.00000
  0.55138   0.00000
  0.60150   0.00000
  0.65163   0.00000
  0.70175   0.00000
  0.75188   0.00000
  0.80201   0.00000
  0.85213   0.00000
  0.90226   0.00000
  0.95238   0.00000
  1.00251   0.00000
  1.05263   0.00000
  1.10276   0.00000
  1.15288   0.00000
  1.20301   0.00000
  1.25313   0.00000
  1.30326   0.00000
  1.35338   0.00000
  1.40351   0.00000
  1.45363   0.00000
  1.50376   0.00000
  1.55388   0.00000
  1.60401   0.00000
  1.65414   0.00000
  1.70426   0.00000
  1.75439   0.00000
  1.80451   0.00000
  1.85464   0.00000
  1.90476   0.00000
  1.95489   0.00939
  2.00501   0.01968
  2.05514   0.02870
  2.10526   0.03641
  2.15539   0.04424
  2.20551   0.05107
  2.25564   0.05829
  2.30576   0.06710
  2.35589   0.07855
  2.40602   0.10117
  2.45614   0.09614
  2.50627   0.08413
  2.55639   0.08295
  2.60652   0.09825
  2.65664   0.10101
  2.70677   0.09855
  2.75689   0.09844
  2.80702   0.09356
  2.85714   0.08763
  2.90727   0.08452
  2.95739   0.08210
  3.00752   0.08123
  3.05764   0.08194
  3.10777   0.08191
  3.15789   0.08269
  3.20802   0.08474
  3.25815   0.08669
  3.30827   0.08983
  3.35840   0.09716
  3.40852   0.11013
  3.45865   0.12139
  3.50877   0.11420
  3.55890   0.11231
  3.60902   0.11060
  3.65915   0.10836
  3.70927   0.10495
  3.75940   0.10200
  3.80952   0.09991
  3.85965   0.09818
  3.90977   0.09594
  3.95990   0.09303
  4.01003   0.08846
  4.06015   0.08410
  4.11028   0.07934
  4.16040   0.07644
  4.21053   0.07403
  4.26065   0.07059
  4.31078   0.06590
  4.36090   0.06136
  4.41103   0.05630
  4.46115   0.04980
  4.51128   0.04064
  4.56140   0.03456
  4.61153   0.03168
  4.66165   0.02793
  4.71178   0.02102
  4.76190   0.01750
  4.81203   0.04761
  4.86216   0.08628
  4.91228   0.10877
  4.96241   0.12665
  5.01253   0.13792
  5.06266   0.13931
  5.11278   0.13852
  5.16291   0.13592
  5.21303   0.13826
  5.26316   0.14003
  5.31328   0.14121
  5.36341   0.14287
  5.41353   0.14885
  5.46366   0.16596
  5.51378   0.17415
  5.56391   0.18040
  5.61404   0.19271
  5.66416   0.19021
  5.71429   0.18040
  5.76441   0.18454
  5.81454   0.18460
  5.86466   0.18825
  5.91479   0.19558
  5.96491   0.20387
  6.01504   0.23118
  6.06516   0.25259
  6.11529   0.27765
  6.16541   0.29950
  6.21554   0.32905
  6.26566   0.37185
  6.31579   0.39077
  6.36591   0.40356
  6.41604   0.43797
  6.46617   0.36628
  6.51629   0.34832
  6.56642   0.33448
  6.61654   0.35980
  6.66667   0.36756
  6.71679   0.25107
  6.76692   0.20284
  6.81704   0.18161
  6.86717   0.15686
  6.91729   0.14401
  6.96742   0.14072
  7.01754   0.14234
  7.06767   0.15026
  7.11779   0.16469
  7.16792   0.19199
  7.21805   0.34762
  7.26817   1.06703
  7.31830   1.64476
  7.36842   1.75219
  7.41855   2.04932
  7.46867   1.82334
  7.51880   1.73456
  7.56892   1.61503
  7.61905   1.51189
  7.66917   1.16759
  7.71930   1.17949
  7.76942   0.57607
  7.81955   0.87645
  7.86967   1.12897
  7.91980   0.72461
  7.96992   0.40239
  8.02005   0.27503
  8.07018   0.19965
  8.12030   0.14354
  8.17043   0.11146
  8.22055   0.09119
  8.27068   0.07561
  8.32080   0.06760
  8.37093   0.05847
  8.42105   0.04276
  8.47118   0.02335
  8.52130   0.00629
  8.57143   0.00000
  8.62155   0.00000
  8.67168   0.00000
  8.72180   0.00000
  8.77193   0.00000
  8.82206   0.00000
  8.87218   0.00000
  8.92231   0.00000
  8.97243   0.00000
  9.02256   0.00000
  9.07268   0.00000
  9.12281   0.00000
  9.17293   0.00000
  9.22306   0.00000
  9.27318   0.00000
  9.32331   0.00000
  9.37343   0.00000
  9.42356   0.00000
  9.47368   0.00000
  9.52381   0.00000
  9.57393   0.00000
  9.62406   0.00000
  9.67419   0.00000
  9.72431   0.00000
  9.77444   0.00000
  9.82456   0.00000
  9.87469   0.00000
  9.92481   0.00000
  9.97494   0.00000
 10.02506   0.00000
 10.07519   0.00000
     10.07518797     -10.02506266   402       2.54431023       1.00000000; Z= 11; 3s 
-10.02506   0.00000
 -9.97494   0.00000
 -9.92481   0.00000
 -9.87469   0.00000
 -9.82456   0.00000
 -9.77444   0.00000
 -9.72431   0.00000
 -9.67419   0.00000
 -9.62406   0.00000
 -9.57393   0.00000
 -9.52381   0.00000
 -9.47368   0.00000
 -9.42356   0.00000
 -9.37343   0.00000
 -9.32331   0.00000
 -9.27318   0.00000
 -9.22306   0.00000
 -9.17293   0.00000
 -9.12281   0.00000
 -9.07268   0.00000
 -9.02256   0.00000
 -8.97243   0.00000
 -8.92231   0.00000
 -8.87218   0.00000
 -8.82206   0.00000
 -8.77193   0.00000
 -8.72180   0.00000
 -8.67168   0.00000
 -8.62155   0.00000
 -8.57143   0.00000
 -8.52130   0.00000
 -8.47118   0.00000
 -8.42105   0.00000
 -8.37093   0.00000
 -8.32080   0.00000
 -8.27068   0.00000
 -8.22055   0.00000
 -8.17043   0.00000
 -8.12030   0.00000
 -8.07018   0.00000
 -8.02005   0.00000
 -7.96992   0.00000
 -7.91980   0.00000
 -7.86967   0.00000
 -7.81955   0.00000
 -7.76942   0.00000
 -7.71930   0.00000
 -7.66917   0.00000
 -7.61905   0.00000
 -7.56892   0.00000
 -7.51880   0.00000
 -7.46867   0.00000
 -7.41855   0.00000
 -7.36842   0.00000
 -7.31830   0.00000
 -7.26817   0.00000
 -7.21805   0.00000
 -7.16792   0.00000
 -7.11779   0.00000
 -7.06767   0.00000
 -7.01754   0.00000
 -6.96742   0.00000
 -6.91729   0.00000
 -6.86717   0.00000
 -6.81704   0.00000
 -6.76692   0.00000
 -6.71679   0.00000
 -6.66667   0.00000
 -6.61654   0.00000
 -6.56642   0.00000
 -6.51629   0.00000
 -6.46617   0.00000
 -6.41604   0.00000
 -6.36591   0.00000
 -6.31579   0.00000
 -6.26566   0.00054
 -6.21554  -0.00146
 -6.16541   0.01417
 -6.11529   0.13143
 -6.06516   0.06013
 -6.01504   0.06311
 -5.96491   0.08184
 -5.91479   0.05726
 -5.86466   0.04750
 -5.81454   0.04334
 -5.76441   0.03844
 -5.71429   0.03376
 -5.66416   0.02876
 -5.61404   0.02742
 -5.56391   0.02531
 -5.51378   0.02400
 -5.46366   0.02310
 -5.41353   0.02023
 -5.36341   0.01889
 -5.31328   0.01786
 -5.26316   0.01746
 -5.21303   0.01675
 -5.16291   0.01591
 -5.11278   0.01485
 -5.06266   0.01722
 -5.01253   0.01602
 -4.96241   0.02104
 -4.91228   0.01632
 -4.86216   0.04519
 -4.81203   0.06092
 -4.76190   0.07986
 -4.71178   0.07749
 -4.66165   0.10559
 -4.61153   0.12910
 -4.56140   0.11275
 -4.51128   0.09581
 -4.46115   0.08728
 -4.41103   0.07241
 -4.36090   0.06387
 -4.31078   0.06130
 -4.26065   0.05362
 -4.21053   0.05593
 -4.16040   0.08079
 -4.11028   0.12234
 -4.06015   0.08917
 -4.01003   0.04079
 -3.95990   0.01839
 -3.90977   0.01245
 -3.85965   0.00752
 -3.80952   0.00068
 -3.75940  -0.00828
 -3.70927  -0.00500
 -3.65915   0.00108
 -3.60902   0.00514
 -3.55890   0.00662
 -3.50877   0.00021
 -3.45865   0.00000
 -3.40852   0.00000
 -3.35840   0.00000
 -3.30827   0.00000
 -3.25815   0.00000
 -3.20802   0.00000
 -3.15789   0.00000
 -3.10777   0.00000
 -3.05764   0.00000
 -3.00752   0.00000
 -2.95739   0.00000
 -2.90727   0.00000
 -2.85714   0.00000
 -2.80702   0.00000
 -2.75689   0.00000
 -2.70677   0.00000
 -2.65664   0.00000
 -2.60652   0.00000
 -2.55639   0.00000
 -2.50627   0.00000
 -2.45614   0.00000
 -2.40602   0.00000
 -2.35589   0.00000
 -2.30576   0.00000
 -2.25564   0.00000
 -2.20551   0.00000
 -2.15539   0.00000
 -2.10526   0.00000
 -2.05514   0.00000
 -2.00501   0.00000
 -1.95489   0.00000
 -1.90476   0.00000
 -1.85464   0.00000
 -1.80451   0.00000
 -1.75439   0.00000
 -1.70426   0.00000
 -1.65414   0.00000
 -1.60401   0.00000
 -1.55388   0.00000
 -1.50376   0.00000
 -1.45363   0.00000
 -1.40351   0.00000
 -1.35338   0.00000
 -1.30326   0.00000
 -1.25313   0.03603
 -1.20301   0.07720
 -1.15288   0.18523
 -1.10276   0.15818
 -1.05263   0.14602
 -1.00251   0.14895
 -0.95238   0.12247
 -0.90226   0.10059
 -0.85213   0.06725
 -0.80201   0.04855
 -0.75188   0.04252
 -0.70175   0.05284
 -0.65163   0.07451
 -0.60150   0.05728
 -0.55138   0.04668
 -0.50125   0.03860
 -0.45113   0.03287
 -0.40100   0.02672
 -0.35088   0.02140
 -0.30075   0.01633
 -0.25063   0.01129
 -0.20050   0.00676
 -0.15038   0.00440
 -0.10025   0.00255
 -0.05013   0.00108
  0.00000   0.00020
  0.05013   0.00000
  0.10025   0.00000
  0.15038   0.00000
  0.20050   0.00000
  0.25063   0.00000
  0.30075   0.00000
  0.35088   0.00000
  0.40100   0.00000
  0.45113   0.00000
  0.50125   0.00000
  0.55138   0.00000
  0.60150   0.00000
  0.65163   0.00000
  0.70175   0.00000
  0.75188   0.00000
  0.80201   0.00000
  0.85213   0.00000
  0.90226   0.00000
  0.95238   0.00000
  1.00251   0.00000
  1.05263   0.00000
  1.10276   0.00000
  1.15288   0.00000
  1.20301   0.00000
  1.25313   0.00000
  1.30326   0.00000
  1.35338   0.00000
  1.40351   0.00000
  1.45363   0.00000
  1.50376   0.00000
  1.55388   0.00000
  1.60401   0.00000
  1.65414   0.00000
  1.70426   0.00000
  1.75439   0.00000
  1.80451   0.00000
  1.85464   0.00000
  1.90476   0.00000
  1.95489   0.00939
  2.00501   0.01968
  2.05514   0.02870
  2.10526   0.03641
  2.15539   0.04424
  2.20551   0.05107
  2.25564   0.05829
  2.30576   0.06710
  2.35589   0.07855
  2.40602   0.10117
  2.45614   0.09614
  2.50627   0.08413
  2.55639   0.08295
  2.60652   0.09825
  2.65664   0.10101
  2.70677   0.09855
  2.75689   0.09844
  2.80702   0.09356
  2.85714   0.08763
  2.90727   0.08452
  2.95739   0.08210
  3.00752   0.08123
  3.05764   0.08194
  3.10777   0.08191
  3.15789   0.08269
  3.20802   0.08475
  3.25815   0.08669
  3.30827   0.08984
  3.35840   0.09717
  3.40852   0.11013
  3.45865   0.12139
  3.50877   0.11420
  3.55890   0.11231
  3.60902   0.11060
  3.65915   0.10836
  3.70927   0.10495
  3.75940   0.10200
  3.80952   0.09991
  3.85965   0.09818
  3.90977   0.09594
  3.95990   0.09302
  4.01003   0.08846
  4.06015   0.08409
  4.11028   0.07934
  4.16040   0.07644
  4.21053   0.07403
  4.26065   0.07059
  4.31078   0.06590
  4.36090   0.06136
  4.41103   0.05630
  4.46115   0.04980
  4.51128   0.04064
  4.56140   0.03456
  4.61153   0.03168
  4.66165   0.02793
  4.71178   0.02102
  4.76190   0.01750
  4.81203   0.04761
  4.86216   0.08628
  4.91228   0.10877
  4.96241   0.12665
  5.01253   0.13792
  5.06266   0.13931
  5.11278   0.13852
  5.16291   0.13592
  5.21303   0.13826
  5.26316   0.14003
  5.31328   0.14121
  5.36341   0.14287
  5.41353   0.14885
  5.46366   0.16596
  5.51378   0.17415
  5.56391   0.18040
  5.61404   0.19271
  5.66416   0.19021
  5.71429   0.18040
  5.76441   0.18455
  5.81454   0.18460
  5.86466   0.18825
  5.91479   0.19558
  5.96491   0.20387
  6.01504   0.23118
  6.06516   0.25259
  6.11529   0.27765
  6.16541   0.29950
  6.21554   0.32905
  6.26566   0.37185
  6.31579   0.39077
  6.36591   0.40356
  6.41604   0.43797
  6.46617   0.36628
  6.51629   0.34832
  6.56642   0.33448
  6.61654   0.35980
  6.66667   0.36756
  6.71679   0.25107
  6.76692   0.20284
  6.81704   0.18161
  6.86717   0.15686
  6.91729   0.14401
  6.96742   0.14072
  7.01754   0.14235
  7.06767   0.15026
  7.11779   0.16469
  7.16792   0.19199
  7.21805   0.34762
  7.26817   1.06702
  7.31830   1.64477
  7.36842   1.75221
  7.41855   2.04932
  7.46867   1.82331
  7.51880   1.73456
  7.56892   1.61503
  7.61905   1.51190
  7.66917   1.16759
  7.71930   1.17950
  7.76942   0.57606
  7.81955   0.87645
  7.86967   1.12896
  7.91980   0.72461
  7.96992   0.40238
  8.02005   0.27504
  8.07018   0.19965
  8.12030   0.14354
  8.17043   0.11146
  8.22055   0.09119
  8.27068   0.07561
  8.32080   0.06760
  8.37093   0.05847
  8.42105   0.04276
  8.47118   0.02335
  8.52130   0.00629
  8.57143   0.00000
  8.62155   0.00000
  8.67168   0.00000
  8.72180   0.00000
  8.77193   0.00000
  8.82206   0.00000
  8.87218   0.00000
  8.92231   0.00000
  8.97243   0.00000
  9.02256   0.00000
  9.07268   0.00000
  9.12281   0.00000
  9.17293   0.00000
  9.22306   0.00000
  9.27318   0.00000
  9.32331   0.00000
  9.37343   0.00000
  9.42356   0.00000
  9.47368   0.00000
  9.52381   0.00000
  9.57393   0.00000
  9.62406   0.00000
  9.67419   0.00000
  9.72431   0.00000
  9.77444   0.00000
  9.82456   0.00000
  9.87469   0.00000
  9.92481   0.00000
  9.97494   0.00000
 10.02506   0.00000
 10.07519   0.00000
     10.07518797     -10.02506266   402       2.54431023       1.00000000; Z= 11; 3s 
-10.02506   0.00000
 -9.97494   0.00000
 -9.92481   0.00000