ESCALE ; pCOHP file generated by LOBSTER. Energy is shifted such that the Fermi level lies at 0 eV.
      1860          1          3   2.43164e+00   6.43164e+00   4.43164e+00 
Average
No.1:Ge1->Ge6(4.6718254424986139)
No.2:Ge1->Ge7(4.2797237959038918)
No.3:Ge1->Ge27(4.3196516384787778)
No.4:Ge1->Ge40(4.1564476068483494)
No.5:Ge1->Ge41(3.613188456174004)
No.6:Ge1->Ge59(4.4101368616713641)
No.7:Ge1->Ge63(3.6707179198849977)
No.8:Ge1->Ge65(2.5563333144215528)
No.9:Ge1->Ge68(2.5832075996108532)
No.10:Ge1->Ge97(3.1418040574689226)
No.11:Ge1->Ge105(4.6126857182999723)
No.12:Ge1->Te136(4.2037569723353068)
No.13:Ge1->Te144(4.3354529929458892)
No.14:Ge1->Te145(3.4870581041030051)
No.15:Ge1->Te148(4.9948312127947494)
No.16:Ge1->Te153(4.7728251590507416)
No.17:Ge1->Te164(4.0418147162050184)
No.18:Ge1->Te169(4.566118767506544)
No.19:Ge1->Te180(4.1832692790838877)
No.20:Ge1->Te197(2.7045881859045315)
No.21:Ge1->Te206(4.1449389744848073)
No.22:Ge2->Ge22(4.3905871915188017)
No.23:Ge2->Ge35(4.443346122753101)
No.24:Ge2->Ge38(4.3152713400779819)
No.25:Ge2->Ge54(3.9324546145587971)
No.26:Ge2->Ge56(3.871203578361937)
No.27:Ge2->Ge60(4.2912765802466959)
No.28:Ge2->Ge62(4.2881971308920761)
No.29:Ge2->Ge67(4.7232471926410415)
No.30:Ge2->Ge74(4.4028371644414408)
No.31:Ge2->Te122(3.063813048417054)
No.32:Ge2->Te152(3.9790955187252113)
No.33:Ge2->Te155(3.437387638252313)
No.34:Ge2->Te163(2.9957960939077068)
No.35:Ge2->Te177(2.8449630433713495)
No.36:Ge2->Te182(2.8187539701333821)
No.37:Ge2->Te183(3.2199919211419417)
No.38:Ge3->Ge5(4.5190274568963229)
No.39:Ge3->Ge16(3.0920185546155392)
No.40:Ge3->Ge30(3.9396580852824403)
No.41:Ge3->Ge36(4.1442108271772904)
No.42:Ge3->Ge72(4.1645025124485802)
No.43:Ge3->Ge77(4.3610739857523839)
No.44:Ge3->Ge81(4.9930434046779464)
No.45:Ge3->Ge90(4.6068983711495584)
No.46:Ge3->Ge99(3.8803308717541198)
No.47:Ge3->Ge103(3.9985985999021287)
No.48:Ge3->Te134(4.9829060938607901)
No.49:Ge3->Te143(3.2327609804330617)
No.50:Ge3->Te149(4.9618922209628185)
No.51:Ge3->Te157(4.4729735613005044)
No.52:Ge3->Te166(2.8287006212623695)
No.53:Ge3->Te178(4.4931839617745455)
No.54:Ge3->Te188(2.7983260024113381)
No.55:Ge3->Te209(2.8122371486743583)
No.56:Ge4->Ge7(3.1881800043723687)
No.57:Ge4->Ge47(4.2495527426189748)
No.58:Ge4->Ge49(4.1491922028260859)
No.59:Ge4->Ge78(4.4155512394394769)
No.60:Ge4->Ge79(4.543622474628326)
No.61:Ge4->Ge80(2.6290899599146242)
No.62:Ge4->Ge86(3.7318810808440643)
No.63:Ge4->Te114(2.7977066045878307)
No.64:Ge4->Te127(3.3692307043469407)
No.65:Ge4->Te154(4.7266142146450854)
No.66:Ge4->Te156(2.859385850627985)
No.67:Ge4->Te171(3.0772346295414468)
No.68:Ge4->Te176(4.6723619081734196)
No.69:Ge4->Te178(4.4209550456151625)
No.70:Ge4->Te180(4.0047967023456028)
No.71:Ge4->Te207(4.7073620571403909)
No.72:Ge5->Ge14(4.4134630046826473)
No.73:Ge5->Ge16(2.9822246048865164)
No.74:Ge5->Ge20(4.1347763225015264)
No.75:Ge5->Ge43(3.7370998975801299)
No.76:Ge5->Ge66(3.8990317034925055)
No.77:Ge5->Te134(2.6791920424437832)
No.78:Ge5->Te140(3.7242546427925176)
No.79:Ge5->Te141(2.8545419384294326)
No.80:Ge5->Te149(4.0315051392149126)
No.81:Ge5->Te157(2.8114042007711268)
No.82:Ge5->Te167(3.5329808002590282)
No.83:Ge5->Te179(4.9666888161678324)
No.84:Ge5->Te214(4.6948784564050037)
No.85:Ge6->Ge9(4.6968922655514831)
No.86:Ge6->Ge13(3.8123398486585391)
No.87:Ge6->Ge31(4.5056468375173786)
No.88:Ge6->Ge41(4.495795609529571)
No.89:Ge6->Ge52(3.8376348288956454)
No.90:Ge6->Ge97(4.1918903709042397)
No.91:Ge6->Ge105(3.6235991395634324)
No.92:Ge6->Te133(4.9098484895582795)
No.93:Ge6->Te136(2.7963609105935725)
No.94:Ge6->Te145(2.7869558582830485)
No.95:Ge6->Te164(3.3677121904883074)
No.96:Ge6->Te174(3.1763594910649515)
No.97:Ge6->Te179(4.8628493969378628)
No.98:Ge6->Te196(2.8182379926631698)
No.99:Ge6->Te203(3.349500157217363)
No.100:Ge7->Ge12(4.1254778058670647)
No.101:Ge7->Ge14(4.9490641247563065)
No.102:Ge7->Ge20(4.2966265866947877)
No.103:Ge7->Ge49(4.9225367539825999)
No.104:Ge7->Ge59(4.1557627046188506)
No.105:Ge7->Ge68(4.3695463708080373)
No.106:Ge7->Ge78(4.8526457181729432)
No.107:Ge7->Ge86(4.1501363606019988)
No.108:Ge7->Ge105(3.9668864066320175)
No.109:Ge7->Te127(4.2186402031196391)
No.110:Ge7->Te141(3.4761163083095212)
No.111:Ge7->Te164(2.996824664172375)
No.112:Ge7->Te171(3.1934750347607239)
No.113:Ge7->Te180(2.8091546407919528)
No.114:Ge7->Te197(2.7700702445546477)
No.115:Ge8->Ge21(3.938474367706942)
No.116:Ge8->Ge26(4.36869755054739)
No.117:Ge8->Ge33(3.4390476021778236)
No.118:Ge8->Ge43(3.755040556724067)
No.119:Ge8->Ge49(4.2582955377826126)
No.120:Ge8->Ge89(3.6571807631409214)
No.121:Ge8->Ge94(4.5563801275308533)
No.122:Ge8->Ge104(4.9600976647479182)
No.123:Ge8->Te127(4.9820770339043889)
No.124:Ge8->Te135(3.3875732447517066)
No.125:Ge8->Te137(2.8696887766838155)
No.126:Ge8->Te158(3.1654838038974251)
No.127:Ge8->Te184(2.9309566990590796)
No.128:Ge8->Te201(2.7852255627237312)
No.129:Ge8->Te202(3.0139273315593398)
No.130:Ge9->Ge10(4.7100344674794403)
No.131:Ge9->Ge12(4.500059674099651)
No.132:Ge9->Ge14(4.2093980017623576)
No.133:Ge9->Ge23(3.7683964159642835)
No.134:Ge9->Ge34(2.6163936113271808)
No.135:Ge9->Ge38(4.2862674150396227)
No.136:Ge9->Ge51(3.4418218267690861)
No.137:Ge9->Ge52(4.9209267876586091)
No.138:Ge9->Ge62(2.5078458876502117)
No.139:Ge9->Ge67(4.6972375204320889)
No.140:Ge9->Ge102(4.8592053665738257)
No.141:Ge9->Te133(4.7105428764609645)
No.142:Ge9->Te164(4.7016820045998857)
No.143:Ge9->Te173(3.5674634378026409)
No.144:Ge9->Te174(2.7260119272106667)
No.145:Ge9->Te179(2.7110068134776881)
No.146:Ge9->Te182(3.8953445329070622)
No.147:Ge9->Te190(3.8508698015384586)
No.148:Ge10->Ge13(3.4593251634142281)
No.149:Ge10->Ge23(3.9984931188446624)
No.150:Ge10->Ge33(4.7566858964704597)
No.151:Ge10->Ge44(2.7737348460540372)
No.152:Ge10->Ge52(3.7471478929555149)
No.153:Ge10->Ge58(4.8940667317225088)
No.154:Ge10->Ge62(4.5853701471410622)
No.155:Ge10->Ge67(4.812012043454839)
No.156:Ge10->Ge85(4.3766535204585493)
No.157:Ge10->Te121(4.2689729196617625)
No.158:Ge10->Te142(2.8227096895150114)
No.159:Ge10->Te146(3.5592932317591535)
No.160:Ge10->Te158(4.9319744158379937)
No.161:Ge10->Te174(2.8611840990969473)
No.162:Ge10->Te198(3.8939273123183948)
No.163:Ge10->Te216(2.7244688041002076)
No.164:Ge11->Ge22(3.9054020979559061)
No.165:Ge11->Ge28(4.6134524007127569)
No.166:Ge11->Ge29(3.982564241015925)
No.167:Ge11->Ge32(2.5555123926474863)
No.168:Ge11->Ge35(4.3663441783955603)
No.169:Ge11->Ge48(4.5300215384605602)
No.170:Ge11->Ge54(4.5857930261752751)
No.171:Ge11->Ge69(4.1959745330833709)
No.172:Ge11->Ge76(2.5526407840276573)
No.173:Ge11->Ge77(4.0251003323363097)
No.174:Ge11->Ge99(4.8360880437512108)
No.175:Ge11->Te110(2.6795135065820301)
No.176:Ge11->Te124(4.1774439358608593)
No.177:Ge11->Te143(3.7864598128769411)
No.178:Ge11->Te151(4.0163726669617308)
No.179:Ge11->Te155(2.8316917663414776)
No.180:Ge11->Te186(3.076077822132028)
No.181:Ge11->Te210(4.3468659563908023)
No.182:Ge12->Ge14(2.8403552543833861)
No.183:Ge12->Ge23(4.8159661997400809)
No.184:Ge12->Ge34(3.4935699921154333)
No.185:Ge12->Ge46(4.4179999376290739)
No.186:Ge12->Ge49(3.7761335718859468)
No.187:Ge12->Ge86(2.6961104805919627)
No.188:Ge12->Ge105(4.3276086545029502)
No.189:Ge12->Te133(2.7705519430056342)
No.190:Ge12->Te137(3.8598742015704466)
No.191:Ge12->Te141(4.2644122619213274)
No.192:Ge12->Te164(2.7230091882699856)
No.193:Ge12->Te179(4.6645922784019929)
No.194:Ge12->Te181(4.1952676505161621)
No.195:Ge12->Te189(4.5447522454052143)
No.196:Ge13->Ge21(4.0267545958333955)
No.197:Ge13->Ge23(3.9061398186667162)
No.198:Ge13->Ge33(3.6869727105419177)
No.199:Ge13->Ge44(4.1381483203095337)
No.200:Ge13->Ge52(4.2576006765672778)
No.201:Ge13->Ge89(4.8515741368340768)
No.202:Ge13->Ge93(3.7295811089297728)
No.203:Ge13->Te121(2.8056025593810188)
No.204:Ge13->Te133(4.7909449576611376)
No.205:Ge13->Te158(2.7394916780658733)
No.206:Ge13->Te174(3.0293570259277853)
No.207:Ge13->Te196(3.376528116130697)
No.208:Ge13->Te203(2.7595674968608055)
No.209:Ge13->Te205(4.7462695358171993)
No.210:Ge13->Te216(4.0952856506424906)
No.211:Ge14->Ge34(3.1528521407875671)
No.212:Ge14->Ge43(3.7112412968033794)
No.213:Ge14->Ge49(4.2742791257781168)
No.214:Ge14->Ge51(3.2758304318798857)
No.215:Ge14->Ge86(4.8190588362533795)
No.216:Ge14->Te137(2.8401568055355821)
No.217:Ge14->Te141(2.760668532567101)
No.218:Ge14->Te164(4.1133139761326962)
No.219:Ge14->Te167(2.8895019353269364)
No.220:Ge14->Te179(3.5125053304384082)
No.221:Ge14->Te189(4.7662151073790016)
No.222:Ge15->Ge17(4.6790856785700052)
No.223:Ge15->Ge25(3.7912050136666249)
No.224:Ge15->Ge37(2.7495394794620349)
No.225:Ge15->Ge64(3.0504745860970233)
No.226:Ge15->Ge74(4.0205645899624836)
No.227:Ge15->Ge83(4.8290271722651781)
No.228:Ge15->Ge98(3.4182951674496453)
No.229:Ge15->Ge108(3.4966632842059906)
No.230:Ge15->Te111(2.8004905082659413)
No.231:Ge15->Te123(3.6544142009915115)
No.232:Ge15->Te132(4.7108656901473118)
No.233:Ge15->Te152(2.7410601747831218)
No.234:Ge15->Te163(4.9211078505673473)
No.235:Ge15->Te172(4.4780481237008285)
No.236:Ge15->Te199(3.1798667182511924)
No.237:Ge15->Te204(2.9387818107488246)
No.238:Ge15->Te211(4.622747239046431)
No.239:Ge16->Ge32(4.5309843973014337)
No.240:Ge16->Ge48(3.9712561391170182)
No.241:Ge16->Ge66(4.6631751028634794)
No.242:Ge16->Ge81(4.473829686224974)
No.243:Ge16->Ge95(4.5558311388141446)
No.244:Ge16->Ge99(4.8181522373211427)
No.245:Ge16->Te134(4.5014279145409679)
No.246:Ge16->Te140(4.1732913477141107)
No.247:Ge16->Te143(2.8967013089539186)
No.248:Ge16->Te149(2.8067242014579716)
No.249:Ge16->Te157(4.6775959187482075)
No.250:Ge16->Te167(4.8296747679597924)
No.251:Ge16->Te175(4.8233488472264741)
No.252:Ge16->Te209(4.0405707976835714)
No.253:Ge16->Te214(2.7992718473280322)
No.254:Ge17->Ge30(4.434500691567469)
No.255:Ge17->Ge37(3.9165222452457082)
No.256:Ge17->Ge64(3.0958401300105769)
No.257:Ge17->Ge72(4.159759838902179)
No.258:Ge17->Ge83(4.0640998503602068)
No.259:Ge17->Ge100(4.5283750141363859)
No.260:Ge17->Ge103(3.1508973568893079)
No.261:Ge17->Ge106(3.1058182751677244)
No.262:Ge17->Te111(4.9640191596447849)
No.263:Ge17->Te119(2.7470180822964338)
No.264:Ge17->Te123(4.3911707697859086)
No.265:Ge17->Te132(4.1285484927364768)
No.266:Ge17->Te147(4.4454272472681664)
No.267:Ge17->Te160(4.6699486765345588)
No.268:Ge17->Te172(2.9514834360493745)
No.269:Ge17->Te188(3.3981972138957044)
No.270:Ge17->Te211(2.7278706515727555)
No.271:Ge18->Ge26(4.7788146370822266)
No.272:Ge18->Ge49(4.6865632304141673)
No.273:Ge18->Ge60(4.9433278548453199)
No.274:Ge18->Ge69(4.9601645849962779)
No.275:Ge18->Ge81(4.0130533517502185)
No.276:Ge18->Ge91(4.7689799872902565)
No.277:Ge18->Ge101(4.0857425181269793)
No.278:Ge18->Ge104(2.6347917522300395)
No.279:Ge18->Te113(2.7976445524915072)
No.280:Ge18->Te114(4.2033430693269338)
No.281:Ge18->Te120(3.8894012008696994)
No.282:Ge18->Te131(3.6860021630694844)
No.283:Ge18->Te135(4.4761636357459729)
No.284:Ge18->Te170(4.6389510116476638)
No.285:Ge18->Te181(3.4152562708869065)
No.286:Ge18->Te191(4.5244542065140116)
No.287:Ge18->Te192(2.7863895240132184)
No.288:Ge18->Te195(4.2361572416048627)
No.289:Ge19->Ge46(3.0870542594707389)
No.290:Ge19->Ge70(4.0610482222350717)
No.291:Ge19->Ge71(4.1563128198567254)
No.292:Ge19->Ge78(4.4434659615180134)
No.293:Ge19->Ge82(4.5793901004487454)
No.294:Ge19->Ge84(4.9164761950996727)
No.295:Ge19->Ge87(4.2956391405653092)
No.296:Ge19->Ge101(4.1354418997249223)
No.297:Ge19->Te113(4.685345681539121)
No.298:Ge19->Te125(4.2974341405741248)
No.299:Ge19->Te130(2.7362693839170307)
No.300:Ge19->Te181(4.3958320581447055)
No.301:Ge19->Te189(3.8508906370083045)
No.302:Ge19->Te191(3.4541500970866528)
No.303:Ge19->Te195(2.9098480254519727)
No.304:Ge19->Te200(2.8265662911057934)
No.305:Ge19->Te208(4.7263166597664688)
No.306:Ge19->Te215(3.1287505392505848)
No.307:Ge20->Ge36(3.8116642289172273)
No.308:Ge20->Ge39(4.8528219033177651)
No.309:Ge20->Ge43(3.9754581230834898)
No.310:Ge20->Ge53(4.0110614336628538)
No.311:Ge20->Ge59(4.2176857834292569)
No.312:Ge20->Ge61(4.5555625129133928)
No.313:Ge20->Ge73(4.488692773984237)
No.314:Ge20->Te115(3.8288247616693858)
No.315:Ge20->Te127(3.7905043596611208)
No.316:Ge20->Te140(2.7709589213059989)
No.317:Ge20->Te141(3.406632128758571)
No.318:Ge20->Te157(2.8001425667337512)
No.319:Ge20->Te159(2.8224141643660725)
No.320:Ge20->Te171(3.5593842748372437)
No.321:Ge20->Te197(4.0649761888299905)
No.322:Ge21->Ge22(4.8202501113121734)
No.323:Ge21->Ge26(4.5871489475751401)
No.324:Ge21->Ge31(3.857388298625545)
No.325:Ge21->Ge33(4.5124804537427323)
No.326:Ge21->Ge69(4.0101650336961416)
No.327:Ge21->Ge76(4.4420370129624738)
No.328:Ge21->Ge93(4.3655771285936567)
No.329:Ge21->Ge94(3.7341462526957292)
No.330:Ge21->Te135(3.0989653336837786)
No.331:Ge21->Te158(3.0112155444616673)
No.332:Ge21->Te196(4.6674972381995072)
No.333:Ge21->Te202(2.885040228226555)
No.334:Ge21->Te203(2.9244412508249833)
No.335:Ge21->Te205(3.256062062901746)
No.336:Ge21->Te210(2.9420962044760182)
No.337:Ge22->Ge32(4.8281852856134462)
No.338:Ge22->Ge54(4.3944245379097344)
No.339:Ge22->Ge69(3.8100074611236514)
No.340:Ge22->Ge74(2.6848997862773545)
No.341:Ge22->Ge76(2.5598685824352274)
No.342:Ge22->Ge88(4.6011966439202459)
No.343:Ge22->Ge93(3.994884744439092)
No.344:Ge22->Ge108(4.3431111423586639)
No.345:Ge22->Te124(4.4309115017483514)
No.346:Ge22->Te151(4.4599108037434059)
No.347:Ge22->Te152(3.6824761231561163)
No.348:Ge22->Te155(3.8382209826486404)
No.349:Ge22->Te163(4.4203273456643384)
No.350:Ge22->Te183(2.6809219335464038)
No.351:Ge22->Te205(2.7317047441955915)
No.352:Ge22->Te210(4.4254145960565783)
No.353:Ge23->Ge34(3.5534189897890971)
No.354:Ge23->Ge44(4.3404207262712973)
No.355:Ge23->Ge45(4.3400131142193388)
No.356:Ge23->Ge46(3.6841640014141226)
No.357:Ge23->Ge82(4.687168492350259)
No.358:Ge23->Ge93(4.4041631832842461)
No.359:Ge23->Te121(2.7923568702919765)
No.360:Ge23->Te125(2.7695856080771306)
No.361:Ge23->Te133(2.8394997331340677)
No.362:Ge23->Te146(4.1474512509449806)
No.363:Ge23->Te173(3.750638898787142)
No.364:Ge23->Te174(3.2709050780210087)
No.365:Ge23->Te189(4.6508509974830163)
No.366:Ge23->Te208(4.6997778643835364)
No.367:Ge24->Ge30(4.6139611672266954)
No.368:Ge24->Ge42(3.1824046462634317)
No.369:Ge24->Ge50(3.6134199741247204)
No.370:Ge24->Ge63(3.9206618105010329)
No.371:Ge24->Ge72(4.0736191111125235)
No.372:Ge24->Ge73(4.2853937019146651)
No.373:Ge24->Ge75(3.9532950142026406)
No.374:Ge24->Te116(3.6406057222037349)
No.375:Ge24->Te118(2.910018770421464)
No.376:Ge24->Te126(4.4708038383848487)
No.377:Ge24->Te129(2.802867131277079)
No.378:Ge24->Te153(4.8007417122520595)
No.379:Ge24->Te166(3.2972310559929885)
No.380:Ge24->Te193(4.4917796601828224)
No.381:Ge24->Te206(2.8517099397792194)
No.382:Ge24->Te212(3.2887722248959022)
No.383:Ge25->Ge45(4.3144792319754108)
No.384:Ge25->Ge55(3.7239933334727233)
No.385:Ge25->Ge83(4.3258776733420694)
No.386:Ge25->Ge92(3.4048414681730885)
No.387:Ge25->Ge107(3.9584026204851073)
No.388:Ge25->Ge108(3.1386032285443304)
No.389:Ge25->Te111(2.7175377177186864)
No.390:Ge25->Te123(4.7298694036321969)
No.391:Ge25->Te138(4.9153850825880196)
No.392:Ge25->Te162(4.9998965159269853)
No.393:Ge25->Te165(2.8066101044465612)
No.394:Ge25->Te185(2.7957195070936582)
No.395:Ge25->Te194(3.2576866619139437)
No.396:Ge25->Te204(3.0194051644027091)
No.397:Ge25->Te211(4.6960414605522747)
No.398:Ge26->Ge69(4.3785069270970869)
No.399:Ge26->Ge71(4.7376059423034897)
No.400:Ge26->Ge89(4.9435994169437514)
No.401:Ge26->Ge104(4.6469297701425871)
No.402:Ge26->Ge108(4.7125401577483901)
No.403:Ge26->Te111(3.4022253249538252)
No.404:Ge26->Te113(2.8087487884701017)
No.405:Ge26->Te135(2.7694427750603441)
No.406:Ge26->Te138(4.507628106120408)
No.407:Ge26->Te158(4.404935080907797)
No.408:Ge26->Te165(4.423421632803584)
No.409:Ge26->Te172(4.7881126012428403)
No.410:Ge26->Te184(2.8368249868035815)
No.411:Ge26->Te192(4.6192395135675053)
No.412:Ge26->Te195(4.4063802660316398)
No.413:Ge26->Te205(3.7505401763010062)
No.414:Ge27->Ge31(4.0131950159256169)
No.415:Ge27->Ge40(3.0923036580595098)
No.416:Ge27->Ge55(3.8345914771398593)
No.417:Ge27->Ge65(4.5716684987067682)
No.418:Ge27->Ge68(2.6227278069422977)
No.419:Ge27->Ge92(3.9586931817681661)
No.420:Ge27->Ge97(4.7193852805004823)
No.421:Ge27->Te109(3.7571922687510333)
No.422:Ge27->Te112(2.7354122952288797)
No.423:Ge27->Te144(4.4464904722090504)
No.424:Ge27->Te145(3.4441446566075609)
No.425:Ge27->Te148(3.9151978627900168)
No.426:Ge27->Te162(3.7102126463017355)
No.427:Ge27->Te180(4.635917435646336)
No.428:Ge27->Te185(4.9181811153657069)
No.429:Ge27->Te194(2.7734193905135842)
No.430:Ge27->Te213(4.8224773912107626)
No.431:Ge28->Ge42(4.2932526528923409)
No.432:Ge28->Ge54(4.6110597213294007)
No.433:Ge28->Ge75(4.6453913654261374)
No.434:Ge28->Ge76(4.9640003630089309)
No.435:Ge28->Ge77(4.6031704992518279)
No.436:Ge28->Ge79(3.4862411300899789)
No.437:Ge28->Ge84(4.7726158346432834)
No.438:Ge28->Ge92(3.565489924365262)
No.439:Ge28->Ge98(4.4652308941733718)
No.440:Ge28->Te110(3.0745481411790294)
No.441:Ge28->Te112(4.1052760720873946)
No.442:Ge28->Te123(4.0766476907768636)
No.443:Ge28->Te124(3.5501139439088036)
No.444:Ge28->Te139(2.7556540137579248)
No.445:Ge28->Te161(2.7900595912024966)
No.446:Ge28->Te186(4.3431818785900935)
No.447:Ge28->Te204(4.9938149802399288)
No.448:Ge28->Te213(2.905916411241193)
No.449:Ge29->Ge35(3.8872713596935644)
No.450:Ge29->Ge41(4.4298944810870555)
No.451:Ge29->Ge48(3.1867641695593338)
No.452:Ge29->Ge50(4.4638405682669662)
No.453:Ge29->Ge52(4.4237024473717179)
No.454:Ge29->Ge97(4.1637483308588363)
No.455:Ge29->Te110(2.8146461941944527)
No.456:Ge29->Te136(3.3225871944389094)
No.457:Ge29->Te139(4.8213937613084052)
No.458:Ge29->Te143(4.6612340885150143)
No.459:Ge29->Te155(2.8140842150419223)
No.460:Ge29->Te169(3.3567833737243657)
No.461:Ge29->Te175(4.0569652111817271)
No.462:Ge29->Te182(4.416394936375343)
No.463:Ge29->Te187(2.9684096387708543)
No.464:Ge30->Ge70(4.0859993210800125)
No.465:Ge30->Ge72(3.7878483022662008)
No.466:Ge30->Ge75(4.6281562256600743)
No.467:Ge30->Ge80(4.4657388110866698)
No.468:Ge30->Ge83(4.9827273875406126)
No.469:Ge30->Ge90(3.8214566884779626)
No.470:Ge30->Ge99(4.8354161008634557)
No.471:Ge30->Ge103(4.9988605267361406)
No.472:Ge30->Te116(4.4379322703822819)
No.473:Ge30->Te119(2.9981643939899194)
No.474:Ge30->Te130(4.8703167646188996)
No.475:Ge30->Te154(3.46093470582053)
No.476:Ge30->Te166(2.7855562363732544)
No.477:Ge30->Te178(3.1980438455648681)
No.478:Ge30->Te188(3.0879854461943972)
No.479:Ge30->Te211(4.5048731039200325)
No.480:Ge30->Te212(2.8605924280743991)
No.481:Ge31->Ge53(4.1519528060833819)
No.482:Ge31->Ge76(4.7036681041297816)
No.483:Ge31->Ge88(4.8950267176797109)
No.484:Ge31->Ge94(4.5105817271284936)
No.485:Ge31->Ge95(4.5492183891505675)
No.486:Ge31->Ge105(4.185297966271083)
No.487:Ge31->Te109(2.7675782502559754)
No.488:Ge31->Te112(2.8086477549757887)
No.489:Ge31->Te124(4.2944258653525003)
No.490:Ge31->Te145(2.8196008819079186)
No.491:Ge31->Te196(4.5174000702782946)
No.492:Ge31->Te202(4.3132763611211953)
No.493:Ge31->Te203(3.4108569357293734)
No.494:Ge31->Te210(3.2419963891220474)
No.495:Ge32->Ge35(4.4243559113884414)
No.496:Ge32->Ge48(4.2604277896892233)
No.497:Ge32->Ge69(3.3818456067934259)
No.498:Ge32->Ge76(4.1921355887146063)
No.499:Ge32->Ge77(4.5847681474560211)
No.500:Ge32->Ge81(3.5923061756227805)
No.501:Ge32->Ge90(4.9993095830657444)
No.502:Ge32->Ge99(2.9777198519760573)
No.503:Ge32->Te110(4.6448148091689312)
No.504:Ge32->Te143(2.751892830300092)
No.505:Ge32->Te149(4.2083779093931666)
No.506:Ge32->Te151(2.7134832940920957)
No.507:Ge32->Te155(4.4612250115797316)
No.508:Ge32->Te170(4.206186039719503)
No.509:Ge32->Te186(3.7713040360957133)
No.510:Ge32->Te192(3.9147942396775637)
No.511:Ge32->Te210(4.9691311043785813)
No.512:Ge33->Ge52(4.1083741091431127)
No.513:Ge33->Ge89(3.7898441570669226)
No.514:Ge33->Ge95(4.1509440166349325)
No.515:Ge33->Te128(4.804668596435385)
No.516:Ge33->Te158(2.8429456449693689)
No.517:Ge33->Te196(3.0841628515691024)
No.518:Ge33->Te201(2.8518478488410928)
No.519:Ge33->Te202(3.2976340693981845)
No.520:Ge33->Te214(3.3956239944911455)
No.521:Ge33->Te216(2.9002022937066259)
No.522:Ge34->Ge46(4.4021712985673451)
No.523:Ge34->Ge51(2.6197766084810445)
No.524:Ge34->Ge62(4.4082924784268691)
No.525:Ge34->Ge82(4.1470137949028461)
No.526:Ge34->Ge102(4.7049899493464347)
No.527:Ge34->Te125(4.6765630469690507)
No.528:Ge34->Te133(3.9332640271770973)
No.529:Ge34->Te137(4.3561382983175374)
No.530:Ge34->Te167(4.5786619010110252)
No.531:Ge34->Te168(4.6150725633771428)
No.532:Ge34->Te173(2.7451254622358627)
No.533:Ge34->Te174(4.6464810783158939)
No.534:Ge34->Te179(4.1980872422947844)
No.535:Ge34->Te189(3.0240803650791128)
No.536:Ge34->Te190(4.6915481383652811)
No.537:Ge35->Ge48(3.1442300467903506)
No.538:Ge35->Ge52(2.9122008493903406)
No.539:Ge35->Ge74(3.984298589769899)
No.540:Ge35->Te143(4.8982908676966268)
No.541:Ge35->Te151(2.720754104360291)
No.542:Ge35->Te155(2.7481904633420391)
No.543:Ge35->Te163(2.7857542441485954)
No.544:Ge35->Te182(4.0209322554039373)
No.545:Ge35->Te214(4.408380080159942)
No.546:Ge35->Te216(3.772086023502716)
No.547:Ge36->Ge61(4.4816300185735454)
No.548:Ge36->Ge72(2.8236835333730097)
No.549:Ge36->Ge73(3.3683944493875511)
No.550:Ge36->Ge96(4.3240617011357845)
No.551:Ge36->Ge103(3.7041745424366406)
No.552:Ge36->Te129(3.9716635736647072)
No.553:Ge36->Te140(4.636148667761713)
No.554:Ge36->Te150(4.284655455611996)
No.555:Ge36->Te157(2.7524110368698702)
No.556:Ge36->Te159(2.7861996632566504)
No.557:Ge36->Te160(3.6156702916668935)
No.558:Ge36->Te166(3.7116587528332183)
No.559:Ge36->Te209(2.7133755130127839)
No.560:Ge37->Ge64(3.1048992928341801)
No.561:Ge37->Ge74(2.6933739148306057)
No.562:Ge37->Ge91(3.9709774157638487)
No.563:Ge37->Ge106(4.0155908150569211)
No.564:Ge37->Te111(3.8014575308460024)
No.565:Ge37->Te128(4.9243758370785518)
No.566:Ge37->Te132(2.7131107598920599)
No.567:Ge37->Te151(4.5412871661013314)
No.568:Ge37->Te152(3.6888108624922689)
No.569:Ge37->Te163(3.627240005681895)
No.570:Ge37->Te172(2.684866449161095)
No.571:Ge37->Te199(3.8995196280168956)
No.572:Ge37->Te211(4.909807062857646)
No.573:Ge38->Ge41(3.8260099193821162)
No.574:Ge38->Ge51(4.8807441563153882)
No.575:Ge38->Ge56(4.5400392709772586)
No.576:Ge38->Ge62(3.7539757882575362)
No.577:Ge38->Ge66(3.4031094848306895)
No.578:Ge38->Te122(3.3090116605208517)
No.579:Ge38->Te131(4.3873736101381757)
No.580:Ge38->Te134(3.6760474027633316)
No.581:Ge38->Te179(2.8646352950124041)
No.582:Ge38->Te182(2.7832924935062393)
No.583:Ge38->Te187(2.9596753962136617)
No.584:Ge38->Te190(3.2989266501539851)
No.585:Ge39->Ge59(4.5930962222860616)
No.586:Ge39->Ge61(2.877916260369795)
No.587:Ge39->Ge70(4.1510853008073765)
No.588:Ge39->Ge71(3.7546026494414693)
No.589:Ge39->Ge78(3.9705277112012425)
No.590:Ge39->Ge80(4.2487222123119208)
No.591:Ge39->Ge107(4.1421058151626022)
No.592:Ge39->Te115(3.1839906656261072)
No.593:Ge39->Te117(4.8906075935497153)
No.594:Ge39->Te130(4.5038731932368075)
No.595:Ge39->Te138(2.8480164195378577)
No.596:Ge39->Te154(2.9276531357196358)
No.597:Ge39->Te159(4.2884491537619009)
No.598:Ge39->Te171(3.1732460001009675)
No.599:Ge39->Te176(4.6839261534386551)
No.600:Ge39->Te200(2.9102853979337633)
No.601:Ge40->Ge44(4.0846549107105208)
No.602:Ge40->Ge55(3.1653803498794879)
No.603:Ge40->Ge58(4.1255237321016622)
No.604:Ge40->Ge63(4.5261857618904644)
No.605:Ge40->Ge65(2.5916932000050061)
No.606:Ge40->Ge68(3.4693035451637844)
No.607:Ge40->Ge85(4.1554001476878897)
No.608:Ge40->Ge97(4.6974483964378573)
No.609:Ge40->Te144(3.8423384102626015)
No.610:Ge40->Te146(2.7267297792751068)
No.611:Ge40->Te148(2.7581107501264537)
No.612:Ge40->Te153(4.2566278609340458)
No.613:Ge40->Te162(4.1416345103578793)
No.614:Ge40->Te194(3.7100441832017284)
No.615:Ge41->Ge50(3.9609084377077166)
No.616:Ge41->Ge63(4.4748437384534805)
No.617:Ge41->Ge97(4.0499964363082173)
No.618:Ge41->Te134(4.1560125693244627)
No.619:Ge41->Te136(2.7321349009776212)
No.620:Ge41->Te164(4.2170567528751963)
No.621:Ge41->Te169(4.387369532709064)
No.622:Ge41->Te179(2.8493325077556433)
No.623:Ge41->Te182(4.7426101512959731)
No.624:Ge41->Te187(2.8233772297943109)
No.625:Ge41->Te197(4.2228492210447648)
No.626:Ge41->Te206(3.4628573514169148)
No.627:Ge42->Ge50(2.8184263697798966)
No.628:Ge42->Ge63(4.0140065736157844)
No.629:Ge42->Ge75(2.7392094151339244)
No.630:Ge42->Ge84(3.8561226628623055)
No.631:Ge42->Ge98(3.6176002363442601)
No.632:Ge42->Te116(4.0550444357639162)
No.633:Ge42->Te118(2.7416770612818864)
No.634:Ge42->Te139(3.799565085599824)
No.635:Ge42->Te161(2.7230880465078902)
No.636:Ge42->Te169(4.4632562324375549)
No.637:Ge42->Te193(2.8503657963901712)
No.638:Ge42->Te206(4.3616193953367581)
No.639:Ge42->Te212(3.8790442777285539)
No.640:Ge42->Te213(4.7878963139835644)
No.641:Ge43->Ge49(3.8826568550790577)
No.642:Ge43->Ge53(4.0208859138359214)
No.643:Ge43->Ge94(3.9741097245583741)
No.644:Ge43->Ge95(4.7139041624930949)
No.645:Ge43->Te127(2.7878910148887157)
No.646:Ge43->Te137(3.3167661195480402)
No.647:Ge43->Te140(2.8782202564872512)
No.648:Ge43->Te141(2.8224280554145258)
No.649:Ge43->Te167(4.0920331181963592)
No.650:Ge43->Te201(4.8689667575043147)
No.651:Ge43->Te202(3.293027980875006)
No.652:Ge43->Te214(4.7157100371768559)
No.653:Ge44->Ge55(2.7236134387242172)
No.654:Ge44->Ge58(4.1126793767742713)
No.655:Ge44->Ge85(4.5471217897612641)
No.656:Ge44->Ge89(4.0704353655257917)
No.657:Ge44->Ge96(4.9686918476719333)
No.658:Ge44->Te121(3.354921871387341)
No.659:Ge44->Te142(4.5951099164371936)
No.660:Ge44->Te146(2.7515835125153592)
No.661:Ge44->Te148(4.8603926576147041)
No.662:Ge44->Te158(4.5567726453827513)
No.663:Ge44->Te162(4.6951152808639511)
No.664:Ge44->Te165(3.7003489405829999)
No.665:Ge44->Te198(2.806328086791765)
No.666:Ge44->Te216(4.5432960011089447)
No.667:Ge45->Ge46(4.0276634488068854)
No.668:Ge45->Ge55(4.5497411400688028)
No.669:Ge45->Ge87(3.6522954824836074)
No.670:Ge45->Ge93(4.6065450061137305)
No.671:Ge45->Ge108(3.5251234521560382)
No.672:Ge45->Te121(3.3688777368438911)
No.673:Ge45->Te125(2.8043249213235697)
No.674:Ge45->Te144(4.8153472961862764)
No.675:Ge45->Te152(4.9755292052486499)
No.676:Ge45->Te194(3.5016916121418675)
No.677:Ge45->Te204(3.5411133791468634)
No.678:Ge45->Te208(2.7243226704008072)
No.679:Ge45->Te215(2.9145954406969725)
No.680:Ge46->Ge60(4.373179011079646)
No.681:Ge46->Ge82(4.3139874390172395)
No.682:Ge46->Ge86(4.8908482892287637)
No.683:Ge46->Ge87(4.6612548853599849)
No.684:Ge46->Ge93(4.9687968489150585)
No.685:Ge46->Te121(4.9299529322519433)
No.686:Ge46->Te125(2.8636554069754254)
No.687:Ge46->Te133(2.8623681715591291)
No.688:Ge46->Te181(3.3251322848802678)
No.689:Ge46->Te189(2.9645068726924162)
No.690:Ge46->Te191(4.1935776151078148)
No.691:Ge46->Te195(3.913895394761485)
No.692:Ge46->Te200(4.8196753099580052)
No.693:Ge46->Te208(3.1204935609326219)
No.694:Ge46->Te215(4.1848351255057352)
No.695:Ge47->Ge54(4.8820538686100141)
No.696:Ge47->Ge75(3.9076606013817075)
No.697:Ge47->Ge79(4.4081721187584524)
No.698:Ge47->Ge80(4.3767071619615603)
No.699:Ge47->Ge81(4.4654455251648537)
No.700:Ge47->Ge99(4.9462774456807379)
No.701:Ge47->Te114(2.9122491594676312)
No.702:Ge47->Te116(2.9602302220590291)
No.703:Ge47->Te122(4.537560553692404)
No.704:Ge47->Te131(2.9162537972029905)
No.705:Ge47->Te139(4.1941839985715443)
No.706:Ge47->Te156(3.3350720994967453)
No.707:Ge47->Te178(2.8613887503417108)
No.708:Ge47->Te207(3.8456262964689465)
No.709:Ge48->Ge52(3.6712360697772288)
No.710:Ge48->Ge95(3.6573116721272396)
No.711:Ge48->Ge97(4.6897662356189818)
No.712:Ge48->Te110(4.5538275122459257)
No.713:Ge48->Te136(4.275080084383883)
No.714:Ge48->Te143(2.7934321986895427)
No.715:Ge48->Te151(4.1459929664997768)
No.716:Ge48->Te155(4.2255551169951078)
No.717:Ge48->Te175(2.7756383617714384)
No.718:Ge48->Te196(4.1089003826993586)
No.719:Ge48->Te214(2.7828272798019724)
No.720:Ge49->Ge86(2.5719364721067293)
No.721:Ge49->Ge94(4.2390882123809996)
No.722:Ge49->Ge104(2.5763788554877438)
No.723:Ge49->Te114(3.2730087604732132)
No.724:Ge49->Te127(2.7325491201337737)
No.725:Ge49->Te135(4.1640006312811124)
No.726:Ge49->Te137(2.6729841861849892)
No.727:Ge49->Te141(4.6867015331458814)
No.728:Ge49->Te170(4.5525491614108669)
No.729:Ge49->Te181(3.6808970003136814)
No.730:Ge49->Te195(4.7911360501825042)
No.731:Ge50->Ge63(3.6155594627213214)
No.732:Ge50->Ge75(3.5071708291698922)
No.733:Ge50->Te110(4.9367699168703352)
No.734:Ge50->Te116(2.7247879613833157)
No.735:Ge50->Te118(4.2413355633144647)
No.736:Ge50->Te134(4.7211555995227759)
No.737:Ge50->Te139(3.2096500812898183)
No.738:Ge50->Te161(4.2075692332098287)
No.739:Ge50->Te169(3.68159886342203)
No.740:Ge50->Te187(2.7561734842617716)
No.741:Ge50->Te206(2.8538257667395999)
No.742:Ge51->Ge57(3.4464179683106053)
No.743:Ge51->Ge62(4.0738278249097011)
No.744:Ge51->Ge66(4.363364436249447)
No.745:Ge51->Ge102(3.5066970096969632)
No.746:Ge51->Te137(4.7574145707090647)
No.747:Ge51->Te167(2.6772998547882083)
No.748:Ge51->Te168(2.7561782462172437)
No.749:Ge51->Te173(3.5653566938873342)
No.750:Ge51->Te179(3.9031801021426098)
No.751:Ge51->Te189(4.6802726725840378)
No.752:Ge51->Te190(2.7905876715164091)
No.753:Ge52->Ge62(4.9828732717561817)
No.754:Ge52->Ge95(4.9396318323075858)
No.755:Ge52->Te136(3.3332217228523815)
No.756:Ge52->Te142(4.9006312240726579)
No.757:Ge52->Te155(4.7930149224649927)
No.758:Ge52->Te163(4.4904082251662825)
No.759:Ge52->Te174(2.9994373820648748)
No.760:Ge52->Te182(3.7690449710077547)
No.761:Ge52->Te196(2.8340708947310702)
No.762:Ge52->Te214(4.4670796910813664)
No.763:Ge52->Te216(2.8055165984359074)
No.764:Ge53->Ge94(2.6348169721760826)
No.765:Ge53->Ge95(3.7766763441168765)
No.766:Ge53->Te109(2.6790129880859177)
No.767:Ge53->Te115(2.742466475689564)
No.768:Ge53->Te127(3.6289333687375072)
No.769:Ge53->Te140(2.7277330956555397)
No.770:Ge53->Te159(4.4061569038609232)
No.771:Ge53->Te162(4.9228951087332629)
No.772:Ge53->Te176(3.5959674853663066)
No.773:Ge53->Te202(3.4107427837151247)
No.774:Ge53->Te210(4.7282436961099501)
No.775:Ge54->Ge60(3.8036994667707607)
No.776:Ge54->Ge76(3.9909622119669033)
No.777:Ge54->Ge79(4.0307971426222471)
No.778:Ge54->Ge88(3.5671298340210233)
No.779:Ge54->Te110(4.7372168465291429)
No.780:Ge54->Te122(3.5926929962004905)