  COHP#    atomMU    atomNU   distance   translation   ICOHP (at) eF 
                                                          for spin 1 
      1       Ge1       Ge6    4.67183     0   0   0        -0.00241 
      2       Ge1       Ge7    4.27972     0   0   0        -0.00537 
      3       Ge1      Ge27    4.31965     0   0   0         0.03083 
      4       Ge1      Ge40    4.15645     0   0   0         0.01753 
      5       Ge1      Ge41    3.61319     0   0   0        -0.35386 
      6       Ge1      Ge59    4.41014     0   0   0         0.00731 
      7       Ge1      Ge63    3.67072     0   0   0        -0.09795 
      8       Ge1      Ge65    2.55633     0   0   0        -3.53723 
      9       Ge1      Ge68    2.58321     0   0   0        -3.56006 
     10       Ge1      Ge97    3.14180     0   0   0        -1.07682 
     11       Ge1     Ge105    4.61269     0   0   0        -0.00247 
     12       Ge1     Te136    4.20376     0   0   0        -0.00318 
     13       Ge1     Te144    4.33545     0   0   0        -0.00081 
     14       Ge1     Te145    3.48706     0   0   0        -0.32603 
     15       Ge1     Te148    4.99483     0   0   0        -0.00357 
     16       Ge1     Te153    4.77283     0   0   0        -0.06636 
     17       Ge1     Te164    4.04181     0   0   0        -0.09612 
     18       Ge1     Te169    4.56612     0   0   0        -0.00514 
     19       Ge1     Te180    4.18327     0   0   0         0.01310 
     20       Ge1     Te197    2.70459     0   0   0        -3.29171 
     21       Ge1     Te206    4.14494     0   0   0        -0.02650 
     22       Ge2      Ge22    4.39059     0   0   0        -0.00288 
     23       Ge2      Ge35    4.44335    -1   0   0         0.00096 
     24       Ge2      Ge38    4.31527    -1   0   0        -0.00485 
     25       Ge2      Ge54    3.93245     0   0   0        -0.07706 
     26       Ge2      Ge56    3.87120     0   0   0        -0.07501 
     27       Ge2      Ge60    4.29128     0   0   0        -0.00589 
     28       Ge2      Ge62    4.28820    -1   0   0        -0.00743 
     29       Ge2      Ge67    4.72325    -1   0   0        -0.00871 
     30       Ge2      Ge74    4.40284     0   0   0         0.00239 
     31       Ge2     Te122    3.06381     0   0   0        -1.49196 
     32       Ge2     Te152    3.97910     0   0   0        -0.08574 
     33       Ge2     Te155    3.43739     0   0   0        -0.49705 
     34       Ge2     Te163    2.99580    -1   0   0        -1.71411 
     35       Ge2     Te177    2.84496     0   0   0        -2.54020 
     36       Ge2     Te182    2.81875    -1   0   0        -2.58734 
     37       Ge2     Te183    3.21999     0   0   0        -0.93045 
     38       Ge3       Ge5    4.51903     0   0   0        -0.01508 
     39       Ge3      Ge16    3.09202     0   0   0        -1.14121 
     40       Ge3      Ge30    3.93966     1   0   0        -0.03931 
     41       Ge3      Ge36    4.14421     0   0   0        -0.02194 
     42       Ge3      Ge72    4.16450     0   0   0        -0.01821 
     43       Ge3      Ge77    4.36107     1  -1   0        -0.00578 
     44       Ge3      Ge81    4.99304     1   0   0        -0.00148 
     45       Ge3      Ge90    4.60690     1   0   0         0.00133 
     46       Ge3      Ge99    3.88033     1   0   0        -0.19234 
     47       Ge3     Ge103    3.99860     0   0   0        -0.02886 
     48       Ge3     Te134    4.98291     0   0   0        -0.00554 
     49       Ge3     Te143    3.23276     0  -1   0        -0.78540 
     50       Ge3     Te149    4.96189     0   0   0        -0.01006 
     51       Ge3     Te157    4.47297     0   0   0        -0.01428 
     52       Ge3     Te166    2.82870     0   0   0        -2.62670 
     53       Ge3     Te178    4.49318     1   0   0        -0.01617 
     54       Ge3     Te188    2.79833     1   0   0        -2.86050 
     55       Ge3     Te209    2.81224     0   0   0        -2.79656 
     56       Ge4       Ge7    3.18818     0   0   0        -0.90170 
     57       Ge4      Ge47    4.24955     0   0   0        -0.00519 
     58       Ge4      Ge49    4.14919     0   0   0        -0.01078 
     59       Ge4      Ge78    4.41555     0   0   0        -0.00953 
     60       Ge4      Ge79    4.54362     0   0   0        -0.00043 
     61       Ge4      Ge80    2.62909     0   0   0        -3.41727 
     62       Ge4      Ge86    3.73188     0   0   0        -0.14852 
     63       Ge4     Te114    2.79771     0   0   0        -2.58176 
     64       Ge4     Te127    3.36923     0   0   0        -0.68002 
     65       Ge4     Te154    4.72661     0   0   0        -0.02126 
     66       Ge4     Te156    2.85939     0   0   0        -2.39521 
     67       Ge4     Te171    3.07723     0   0   0        -1.18732 
     68       Ge4     Te176    4.67236     0   0   0         0.00654 
     69       Ge4     Te178    4.42096     0   0   0         0.01608 
     70       Ge4     Te180    4.00480     0   0   0        -0.06002 
     71       Ge4     Te207    4.70736     0   0   0        -0.00548 
     72       Ge5      Ge14    4.41346     0   0   0        -0.00744 
     73       Ge5      Ge16    2.98222     0   0   0        -1.65959 
     74       Ge5      Ge20    4.13478     0   0   0        -0.01257 
     75       Ge5      Ge43    3.73710     0   0   0        -0.14311 
     76       Ge5      Ge66    3.89903     0   0   0        -0.06039 
     77       Ge5     Te134    2.67919     0   0   0        -3.68138 
     78       Ge5     Te140    3.72425     0   0   0        -0.18777 
     79       Ge5     Te141    2.85454     0   0   0        -2.42502 
     80       Ge5     Te149    4.03151     0   0   0        -0.02921 
     81       Ge5     Te157    2.81140     0   0   0        -2.72699 
     82       Ge5     Te167    3.53298     0   0   0        -0.43499 
     83       Ge5     Te179    4.96669     0   0   0         0.00088 
     84       Ge5     Te214    4.69488     0  -1   0        -0.00204 
     85       Ge6       Ge9    4.69689     0   0   0        -0.00589 
     86       Ge6      Ge13    3.81234     0   0   0        -0.06816 
     87       Ge6      Ge31    4.50565     0   0   0        -0.00257 
     88       Ge6      Ge41    4.49580     0   0   0        -0.00244 
     89       Ge6      Ge52    3.83763     0   0   0        -0.05440 
     90       Ge6      Ge97    4.19189     0   0   0        -0.01795 
     91       Ge6     Ge105    3.62360     0   0   0        -0.14355 
     92       Ge6     Te133    4.90985     0   0   0        -0.00598 
     93       Ge6     Te136    2.79636     0   0   0        -2.73488 
     94       Ge6     Te145    2.78696     0   0   0        -2.75319 
     95       Ge6     Te164    3.36771     0   0   0        -0.65876 
     96       Ge6     Te174    3.17636     0   0   0        -0.97312 
     97       Ge6     Te179    4.86285     0   0   0         0.00013 
     98       Ge6     Te196    2.81824     0   0   0        -2.59401 
     99       Ge6     Te203    3.34950     0   0   0        -0.63687 
    100       Ge7      Ge12    4.12548     0   0   0        -0.03439 
    101       Ge7      Ge14    4.94906     0   0   0        -0.00116 
    102       Ge7      Ge20    4.29663     0   0   0        -0.02628 
    103       Ge7      Ge49    4.92254     0   0   0         0.00037 
    104       Ge7      Ge59    4.15576     0   0   0        -0.02105 
    105       Ge7      Ge68    4.36955     0   0   0        -0.00390 
    106       Ge7      Ge78    4.85265     0   0   0        -0.00038 
    107       Ge7      Ge86    4.15014     0   0   0        -0.06679 
    108       Ge7     Ge105    3.96689     0   0   0        -0.03021 
    109       Ge7     Te127    4.21864     0   0   0        -0.03734 
    110       Ge7     Te141    3.47612     0   0   0        -0.51258 
    111       Ge7     Te164    2.99682     0   0   0        -1.81986 
    112       Ge7     Te171    3.19348     0   0   0        -1.03025 
    113       Ge7     Te180    2.80915     0   0   0        -2.73031 
    114       Ge7     Te197    2.77007     0   0   0        -2.99574 
    115       Ge8      Ge21    3.93847     0  -1   0        -0.03145 
    116       Ge8      Ge26    4.36870     0   0   0        -0.00021 
    117       Ge8      Ge33    3.43905     0  -1   0        -0.26964 
    118       Ge8      Ge43    3.75504     0   0   0        -0.14071 
    119       Ge8      Ge49    4.25830     0   0   0        -0.00675 
    120       Ge8      Ge89    3.65718     0  -1   0        -0.10219 
    121       Ge8      Ge94    4.55638     0   0   0        -0.00635 
    122       Ge8     Ge104    4.96010     0   0   0         0.00126 
    123       Ge8     Te127    4.98208     0   0   0         0.00192 
    124       Ge8     Te135    3.38757     0   0   0        -0.57797 
    125       Ge8     Te137    2.86969     0   0   0        -2.30643 
    126       Ge8     Te158    3.16548     0  -1   0        -0.93832 
    127       Ge8     Te184    2.93096     0   0   0        -1.79788 
    128       Ge8     Te201    2.78523     0   0   0        -2.75715 
    129       Ge8     Te202    3.01393     0  -1   0        -1.51846 
    130       Ge9      Ge10    4.71003     0   0   0        -0.00979 
    131       Ge9      Ge12    4.50006     0   0   0        -0.01406 
    132       Ge9      Ge14    4.20940     0   0   0         0.00132 
    133       Ge9      Ge23    3.76840     0   0   0        -0.11720 
    134       Ge9      Ge34    2.61639     0   0   0        -3.17641 
    135       Ge9      Ge38    4.28627     0   0   0        -0.00189 
    136       Ge9      Ge51    3.44182     0   0   0        -0.24242 
    137       Ge9      Ge52    4.92093     0   0   0        -0.00945 
    138       Ge9      Ge62    2.50785     0   0   0        -4.00399 
    139       Ge9      Ge67    4.69724     0   0   0        -0.01379 
    140       Ge9     Ge102    4.85921     0   0   0        -0.00397 
    141       Ge9     Te133    4.71054     0   0   0        -0.00019 
    142       Ge9     Te164    4.70168     0   0   0        -0.00753 
    143       Ge9     Te173    3.56746     0   0   0        -0.17040 
    144       Ge9     Te174    2.72601     0   0   0        -3.11622 
    145       Ge9     Te179    2.71101     0   0   0        -3.33414 
    146       Ge9     Te182    3.89534     0   0   0        -0.01330 
    147       Ge9     Te190    3.85087     0   0   0        -0.01322 
    148      Ge10      Ge13    3.45933     0   0   0        -0.37638 
    149      Ge10      Ge23    3.99849     0   0   0        -0.07943 
    150      Ge10      Ge33    4.75669     0   0   0        -0.00392 
    151      Ge10      Ge44    2.77373     0   0   0        -2.48563 
    152      Ge10      Ge52    3.74715     0   0   0        -0.11507 
    153      Ge10      Ge58    4.89407     0   0   0        -0.00130 
    154      Ge10      Ge62    4.58537     0   0   0        -0.00284 
    155      Ge10      Ge67    4.81201     0   0   0        -0.00736 
    156      Ge10      Ge85    4.37665     0   0   0        -0.01270 
    157      Ge10     Te121    4.26897     0   0   0        -0.00370 
    158      Ge10     Te142    2.82271     0   0   0        -2.78267 
    159      Ge10     Te146    3.55929     0   0   0        -0.20295 
    160      Ge10     Te158    4.93197     0   0   0         0.00395 
    161      Ge10     Te174    2.86118     0   0   0        -2.35710 
    162      Ge10     Te198    3.89393     0   0   0        -0.08835 
    163      Ge10     Te216    2.72447     0   0   0        -3.32389 
    164      Ge11      Ge22    3.90540     0   0   0        -0.01074 
    165      Ge11      Ge28    4.61345     0   0   0        -0.00311 
    166      Ge11      Ge29    3.98256    -1   0   0        -0.02320 
    167      Ge11      Ge32    2.55551     0   0   0        -3.82237 
    168      Ge11      Ge35    4.36634    -1   0   0        -0.00315 
    169      Ge11      Ge48    4.53002    -1   0   0        -0.00460 
    170      Ge11      Ge54    4.58579     0   0   0        -0.00578 
    171      Ge11      Ge69    4.19597     0   0   0        -0.01958 
    172      Ge11      Ge76    2.55264     0   0   0        -3.71194 
    173      Ge11      Ge77    4.02510     0   0   0        -0.01852 
    174      Ge11      Ge99    4.83609     0   1   0        -0.00667 
    175      Ge11     Te110    2.67951     0   0   0        -3.48417 
    176      Ge11     Te124    4.17744     0   0   0        -0.00044 
    177      Ge11     Te143    3.78646    -1   0   0        -0.05829 
    178      Ge11     Te151    4.01637     0   0   0        -0.01138 
    179      Ge11     Te155    2.83169     0   0   0        -2.47165 
    180      Ge11     Te186    3.07608     0   0   0        -1.23803 
    181      Ge11     Te210    4.34687     0   0   0        -0.01384 
    182      Ge12      Ge14    2.84036     0   0   0        -2.13299 
    183      Ge12      Ge23    4.81597     0   0   0         0.00038 
    184      Ge12      Ge34    3.49357     0   0   0        -0.35356 
    185      Ge12      Ge46    4.41800     0   0   0        -0.00669 
    186      Ge12      Ge49    3.77613     0   0   0        -0.07051 
    187      Ge12      Ge86    2.69611     0   0   0        -2.88343 
    188      Ge12     Ge105    4.32761     0   0   0        -0.01176 
    189      Ge12     Te133    2.77055     0   0   0        -3.03588 
    190      Ge12     Te137    3.85987     0   0   0        -0.07018 
    191      Ge12     Te141    4.26441     0   0   0        -0.01898 
    192      Ge12     Te164    2.72301     0   0   0        -3.33223 
    193      Ge12     Te179    4.66459     0   0   0        -0.00083 
    194      Ge12     Te181    4.19527     0   0   0        -0.01830 
    195      Ge12     Te189    4.54475     0   0   0        -0.00985 
    196      Ge13      Ge21    4.02675     0   0   0        -0.02379 
    197      Ge13      Ge23    3.90614     0   0   0        -0.05298 
    198      Ge13      Ge33    3.68697     0   0   0        -0.12866 
    199      Ge13      Ge44    4.13815     0   0   0        -0.03477 
    200      Ge13      Ge52    4.25760     0   0   0        -0.01158 
    201      Ge13      Ge89    4.85157     0   0   0        -0.00157 
    202      Ge13      Ge93    3.72958     0   0   0        -0.14004 
    203      Ge13     Te121    2.80560     0   0   0        -2.62617 
    204      Ge13     Te133    4.79094     0   0   0        -0.00335 
    205      Ge13     Te158    2.73949     0   0   0        -2.91822 
    206      Ge13     Te174    3.02936     0   0   0        -1.21871 
    207      Ge13     Te196    3.37653     0   0   0        -0.55722 
    208      Ge13     Te203    2.75957     0   0   0        -3.00430 
    209      Ge13     Te205    4.74627     0   0   0        -0.00326 
    210      Ge13     Te216    4.09529     0   0   0        -0.03700 
    211      Ge14      Ge34    3.15285     0   0   0        -0.84801 
    212      Ge14      Ge43    3.71124     0   0   0        -0.13756 
    213      Ge14      Ge49    4.27428     0   0   0        -0.01547 
    214      Ge14      Ge51    3.27583     0   0   0        -0.43099 
    215      Ge14      Ge86    4.81906     0   0   0        -0.03156 
    216      Ge14     Te137    2.84016     0   0   0        -2.53157 
    217      Ge14     Te141    2.76067     0   0   0        -3.01676 
    218      Ge14     Te164    4.11331     0   0   0        -0.02005 
    219      Ge14     Te167    2.88950     0   0   0        -2.13465 
    220      Ge14     Te179    3.51251     0   0   0        -0.49676 
    221      Ge14     Te189    4.76622     0   0   0         0.00178 
    222      Ge15      Ge17    4.67909     0   1   0        -0.00297 
    223      Ge15      Ge25    3.79121     0   0   0        -0.06943 
    224      Ge15      Ge37    2.74954     0   0   0        -2.31211 
    225      Ge15      Ge64    3.05047     0   0   0        -0.96020 
    226      Ge15      Ge74    4.02056     0   0   0        -0.01020 
    227      Ge15      Ge83    4.82903     0   0   1        -0.00343 
    228      Ge15      Ge98    3.41830     0   0   0        -0.25669 
    229      Ge15     Ge108    3.49666     0   0   0        -0.21471 
    230      Ge15     Te111    2.80049     0   0   0        -2.57619 
    231      Ge15     Te123    3.65441     0   0   1        -0.25088 
    232      Ge15     Te132    4.71087    -1   0   0        -0.01362 
    233      Ge15     Te152    2.74106     0   0   0        -2.90321 
    234      Ge15     Te163    4.92111    -1   0   0        -0.00499 
    235      Ge15     Te172    4.47805     0   1   0        -0.00100 
    236      Ge15     Te199    3.17987     0   0   0        -0.79647 
    237      Ge15     Te204    2.93878     0   0   0        -1.77236 
    238      Ge15     Te211    4.62275     0   1   0        -0.00433 
    239      Ge16      Ge32    4.53098     1  -1   0        -0.00859 
    240      Ge16      Ge48    3.97126     0  -1   0        -0.03062 
    241      Ge16      Ge66    4.66318     0   0   0        -0.00532 
    242      Ge16      Ge81    4.47383     1   0   0        -0.00487 
    243      Ge16      Ge95    4.55583     0  -1   0        -0.00650 
    244      Ge16      Ge99    4.81815     1   0   0         0.00346 
    245      Ge16     Te134    4.50143     0   0   0        -0.00431 
    246      Ge16     Te140    4.17329     0   0   0        -0.06505 
    247      Ge16     Te143    2.89670     0  -1   0        -2.18722 
    248      Ge16     Te149    2.80672     0   0   0        -2.85136 
    249      Ge16     Te157    4.67760     0   0   0        -0.00280 
    250      Ge16     Te167    4.82967     0   0   0        -0.00065 
    251      Ge16     Te175    4.82335     0  -1   0        -0.00261 
    252      Ge16     Te209    4.04057     0   0   0        -0.07494 
    253      Ge16     Te214    2.79927     0  -1   0        -2.92427 
    254      Ge17      Ge30    4.43450     0   0   1        -0.00186 
    255      Ge17      Ge37    3.91652     0  -1   0        -0.04356 
    256      Ge17      Ge64    3.09584     0  -1   0        -1.16472 
    257      Ge17      Ge72    4.15976    -1   0   1        -0.00817 
    258      Ge17      Ge83    4.06410     0  -1   1        -0.02645 
    259      Ge17     Ge100    4.52838    -1   0   0        -0.00078 
    260      Ge17     Ge103    3.15090    -1   0   1        -0.92294 
    261      Ge17     Ge106    3.10582    -1   0   0        -0.98280 
    262      Ge17     Te111    4.96402     0  -1   0        -0.00301 
    263      Ge17     Te119    2.74702     0   0   0        -3.07364 
    264      Ge17     Te123    4.39117     0  -1   1        -0.00156 
    265      Ge17     Te132    4.12855    -1  -1   0         0.00139 
    266      Ge17     Te147    4.44543    -1  -1   1         0.00902 
    267      Ge17     Te160    4.66995    -1   0   0        -0.00221 
    268      Ge17     Te172    2.95148     0   0   0        -1.88603 
    269      Ge17     Te188    3.39820     0   0   1        -0.59251 
    270      Ge17     Te211    2.72787     0   0   0        -3.24003 
    271      Ge18      Ge26    4.77881     0   0   0        -0.00303 
    272      Ge18      Ge49    4.68656     0   0   0         0.01081 
    273      Ge18      Ge60    4.94333     0   0   0        -0.00198 
    274      Ge18      Ge69    4.96016     0  -1   0        -0.01262 
    275      Ge18      Ge81    4.01305     0   0   0        -0.03162 
    276      Ge18      Ge91    4.76898     0   0   0        -0.00657 
    277      Ge18     Ge101    4.08574     0   0   0        -0.08951 
    278      Ge18     Ge104    2.63479     0   0   0        -3.43783 
    279      Ge18     Te113    2.79764     0   0   0        -2.94333 
    280      Ge18     Te114    4.20334     0   0   0        -0.00901 
    281      Ge18     Te120    3.88940     0   0   0        -0.17233 
    282      Ge18     Te131    3.68600     0   0   0        -0.32870 
    283      Ge18     Te135    4.47616     0   0   0         0.01876 
    284      Ge18     Te170    4.63895     0   0   0        -0.00547 
    285      Ge18     Te181    3.41526     0   0   0        -0.61840 
    286      Ge18     Te191    4.52445     0   0   0        -0.01886 
    287      Ge18     Te192    2.78639     0   0   0        -2.72665 
    288      Ge18     Te195    4.23616     0   0   0        -0.00848 
    289      Ge19      Ge46    3.08705     0   0   0        -1.23437 
    290      Ge19      Ge70    4.06105     0   0   1        -0.02851 
    291      Ge19      Ge71    4.15631     0   0   0        -0.02723 
    292      Ge19      Ge78    4.44347     0   0   1        -0.00038 
    293      Ge19      Ge82    4.57939     0   0   0        -0.00362 
    294      Ge19      Ge84    4.91648     0   0   1        -0.00626 
    295      Ge19      Ge87    4.29564     0   0   0        -0.00944 
    296      Ge19     Ge101    4.13544     0   0   0        -0.01998 
    297      Ge19     Te113    4.68535     0   0   0        -0.00533 
    298      Ge19     Te125    4.29743     0   0   0        -0.01063 
    299      Ge19     Te130    2.73627     0   0   0        -3.23583 
    300      Ge19     Te181    4.39583     0   0   0        -0.00410 
    301      Ge19     Te189    3.85089     0   0   0        -0.08394 
    302      Ge19     Te191    3.45415     0   0   0        -0.52866 
    303      Ge19     Te195    2.90985     0   0   0        -2.06505 
    304      Ge19     Te200    2.82657     0   0   0        -2.65679 
    305      Ge19     Te208    4.72632     0   0   0        -0.00013 
    306      Ge19     Te215    3.12875     0   0   0        -1.19244 
    307      Ge20      Ge36    3.81166     0   0   0        -0.09448 
    308      Ge20      Ge39    4.85282     0   0   0        -0.00181 
    309      Ge20      Ge43    3.97546     0   0   0        -0.04122 
    310      Ge20      Ge53    4.01106     0   0   0        -0.02828 
    311      Ge20      Ge59    4.21769     0   0   0        -0.03960 
    312      Ge20      Ge61    4.55556     0   0  -1        -0.00760 
    313      Ge20      Ge73    4.48869     0   0   0        -0.01170 
    314      Ge20     Te115    3.82882     0   0   0        -0.16870 
    315      Ge20     Te127    3.79050     0   0   0        -0.18673 
    316      Ge20     Te140    2.77096     0   0   0        -2.94587 
    317      Ge20     Te141    3.40663     0   0   0        -0.55233 
    318      Ge20     Te157    2.80014     0   0   0        -2.74073 
    319      Ge20     Te159    2.82241     0   0   0        -2.57399 
    320      Ge20     Te171    3.55938     0   0   0        -0.41409 
    321      Ge20     Te197    4.06498     0   0   0        -0.06661 
    322      Ge21      Ge22    4.82025     0   0   0         0.00240 
    323      Ge21      Ge26    4.58715     0   1   0        -0.00210 
    324      Ge21      Ge31    3.85739     0   0   0        -0.09819 
    325      Ge21      Ge33    4.51248     0   0   0         0.00131 
    326      Ge21      Ge69    4.01017     0   0   0        -0.03672 
    327      Ge21      Ge76    4.44204     0   0   0        -0.00583 
    328      Ge21      Ge93    4.36558     0   0   0        -0.00372 
    329      Ge21      Ge94    3.73415     0   1   0        -0.10419 
    330      Ge21     Te135    3.09897     0   1   0        -1.26312 
    331      Ge21     Te158    3.01122     0   0   0        -1.49884 
    332      Ge21     Te196    4.66750     0   0   0        -0.00349 
    333      Ge21     Te202    2.88504     0   0   0        -2.34486 
    334      Ge21     Te203    2.92444     0   0   0        -2.06918 
    335      Ge21     Te205    3.25606     0   0   0        -0.87950 
    336      Ge21     Te210    2.94210     0   0   0        -1.96591 
    337      Ge22      Ge32    4.82819     0   0   0        -0.00566 
    338      Ge22      Ge54    4.39442     0   0   0        -0.00235 
    339      Ge22      Ge69    3.81001     0   0   0        -0.15622 
    340      Ge22      Ge74    2.68490     0   0   0        -2.93382 
    341      Ge22      Ge76    2.55987     0   0   0        -3.69648 
    342      Ge22      Ge88    4.60120     0   0   0         0.00746 
    343      Ge22      Ge93    3.99488     0   0   0        -0.03990 
    344      Ge22     Ge108    4.34311     0   0   0        -0.01125 
    345      Ge22     Te124    4.43091     0   0   0        -0.03315 
    346      Ge22     Te151    4.45991     0   0   0        -0.00779 
    347      Ge22     Te152    3.68248     0   0   0        -0.08396 
    348      Ge22     Te155    3.83822     0   0   0        -0.16099 
    349      Ge22     Te163    4.42033    -1   0   0        -0.03276 
    350      Ge22     Te183    2.68092     0   0   0        -3.54515 
    351      Ge22     Te205    2.73170     0   0   0        -3.22598 
    352      Ge22     Te210    4.42541     0   0   0        -0.01650 
    353      Ge23      Ge34    3.55342     0   0   0        -0.32410 
    354      Ge23      Ge44    4.34042     0   0   0        -0.02112 
    355      Ge23      Ge45    4.34001     0   0   0        -0.00471 
    356      Ge23      Ge46    3.68416     0   0   0        -0.15395 
    357      Ge23      Ge82    4.68717     0   0   0        -0.00266 
    358      Ge23      Ge93    4.40416     0   0   0        -0.00368 
    359      Ge23     Te121    2.79236     0   0   0        -2.90586 
    360      Ge23     Te125    2.76959     0   0   0        -2.87723 
    361      Ge23     Te133    2.83950     0   0   0        -2.56753 
    362      Ge23     Te146    4.14745     0   0   0        -0.07567 
    363      Ge23     Te173    3.75064     0   0   0        -0.19807 
    364      Ge23     Te174    3.27091     0   0   0        -0.71577 
    365      Ge23     Te189    4.65085     0   0   0        -0.00244 
    366      Ge23     Te208    4.69978     0   0   0         0.00242 
    367      Ge24      Ge30    4.61396     1   0   0         0.00282 
    368      Ge24      Ge42    3.18240     1   0   0        -0.69503 
    369      Ge24      Ge50    3.61342     0   0   0        -0.14150 
    370      Ge24      Ge63    3.92066     0   0   0        -0.02997 
    371      Ge24      Ge72    4.07362     0   0   0        -0.03059 
    372      Ge24      Ge73    4.28539     0   0   0        -0.01905 
    373      Ge24      Ge75    3.95330     1   0   0        -0.04196 
    374      Ge24     Te116    3.64061     1   0   0        -0.23107 
    375      Ge24     Te118    2.91002     0   0   0        -2.05841 
    376      Ge24     Te126    4.47080     1   0  -1        -0.02057 
    377      Ge24     Te129    2.80287     0   0  -1        -2.79846 
    378      Ge24     Te153    4.80074     0   0   0         0.00010 
    379      Ge24     Te166    3.29723     0   0   0        -0.78853 
    380      Ge24     Te193    4.49178     1   0  -1        -0.00190 
    381      Ge24     Te206    2.85171     0   0   0        -2.47949 
    382      Ge24     Te212    3.28877     1   0   0        -0.77720 
    383      Ge25      Ge45    4.31448     0   0   0        -0.02172 
    384      Ge25      Ge55    3.72399     0   0   0        -0.10931 
    385      Ge25      Ge83    4.32588     0   0   1        -0.01461 
    386      Ge25      Ge92    3.40484     0   0   1        -0.29705 
    387      Ge25     Ge107    3.95840     0   0   0        -0.04915 
    388      Ge25     Ge108    3.13860     0   0   0        -0.81093 
    389      Ge25     Te111    2.71754     0   0   0        -3.03970 
    390      Ge25     Te123    4.72987     0   0   1         0.00249 
    391      Ge25     Te138    4.91539     0   1   0        -0.00024 
    392      Ge25     Te162    4.99990     0   0   1        -0.00470 
    393      Ge25     Te165    2.80661     0   0   0        -2.53754 
    394      Ge25     Te185    2.79572     0   0   1        -2.72185 
    395      Ge25     Te194    3.25769     0   0   1        -0.68863 
    396      Ge25     Te204    3.01941     0   0   0        -1.32343 
    397      Ge25     Te211    4.69604     0   1   0         0.01007 
    398      Ge26      Ge69    4.37851     0  -1   0        -0.00899 
    399      Ge26      Ge71    4.73761     0   0   0        -0.00506 
    400      Ge26      Ge89    4.94360     0  -1   0         0.00709 
    401      Ge26     Ge104    4.64693     0   0   0        -0.00290 
    402      Ge26     Ge108    4.71254     0  -1   0         0.00017 
    403      Ge26     Te111    3.40223     0  -1   0        -0.63714 
    404      Ge26     Te113    2.80875     0   0   0        -2.96568 
    405      Ge26     Te135    2.76944     0   0   0        -3.03904 
    406      Ge26     Te138    4.50763     0   0   0        -0.02490 
    407      Ge26     Te158    4.40494     0  -1   0        -0.03148 
    408      Ge26     Te165    4.42342     0  -1   0        -0.02884 
    409      Ge26     Te172    4.78811     0   0   0        -0.01011 
    410      Ge26     Te184    2.83682     0   0   0        -2.69695 
    411      Ge26     Te192    4.61924     0   0   0        -0.00762 
    412      Ge26     Te195    4.40638     0   0   0        -0.00378 
    413      Ge26     Te205    3.75054     0  -1   0        -0.26731 
    414      Ge27      Ge31    4.01320     0   0   0        -0.03296 
    415      Ge27      Ge40    3.09230     0   0   0        -1.02212 
    416      Ge27      Ge55    3.83459     0   0  -1        -0.05502 
    417      Ge27      Ge65    4.57167     0   0   0        -0.00498 
    418      Ge27      Ge68    2.62273     0   0   0        -3.33490 
    419      Ge27      Ge92    3.95869     0   0   0        -0.04641 
    420      Ge27      Ge97    4.71939     0   0   0        -0.01190 
    421      Ge27     Te109    3.75719     0   0   0        -0.21202 
    422      Ge27     Te112    2.73541     0   0   0        -3.17767 
    423      Ge27     Te144    4.44649     0   0   0         0.00369 
    424      Ge27     Te145    3.44414     0   0   0        -0.40851 
    425      Ge27     Te148    3.91520     0   0   0        -0.06276 
    426      Ge27     Te162    3.71021     0   0   0        -0.23051 