
     Program PWSCF v.7.4 starts on  8Nov2024 at  9:10:35 

     This program is part of the open-source Quantum ESPRESSO suite
     for quantum simulation of materials; please cite
         "P. Giannozzi et al., J. Phys.:Condens. Matter 21 395502 (2009);
         "P. Giannozzi et al., J. Phys.:Condens. Matter 29 465901 (2017);
         "P. Giannozzi et al., J. Chem. Phys. 152 154105 (2020);
          URL http://www.quantum-espresso.org", 
     in publications or presentations arising from this work. More details at
     http://www.quantum-espresso.org/quote

     Parallel version (MPI), running on    48 processors

     MPI processes distributed on     1 nodes
     122602 MiB available memory on the printing compute node when the environment starts

     Waiting for input...
     Reading input from standard input
Warning: card &CELL ignored
Warning: card / ignored

     Current dimensions of program PWSCF are:
     Max number of different atomic species (ntypx) = 10
     Max number of k-points (npk) =  40000
     Max angular momentum in pseudopotentials (lmaxx) =  4
     file N.pbe-n.UPF: wavefunction(s)  2S renormalized
     Found identity + (  0.0000 -0.5000 -0.5000) symmetry
     This is a supercell, fractional translations are disabled
     Message from routine setup:
     using ibrav=0 with symmetry is DISCOURAGED, use correct ibrav instead

     K-points division:     npool     =       3
     R & G space division:  proc/nbgrp/npool/nimage =      16
     Subspace diagonalization in iterative solution of the eigenvalue problem:
     a serial algorithm will be used


     Parallelization info
     --------------------
     sticks:   dense  smooth     PW     G-vecs:    dense   smooth      PW
     Min          55      55     17                 1249     1249     211
     Max          56      56     18                 1252     1252     214
     Sum         885     885    277                20005    20005    3407

     Using Slab Decomposition



     bravais-lattice index     =            0
     lattice parameter (alat)  =       6.8332  a.u.
     unit-cell volume          =     319.0670 (a.u.)^3
     number of atoms/cell      =            8
     number of atomic types    =            2
     number of electrons       =        32.00
     number of Kohn-Sham states=           32
     kinetic-energy cutoff     =      60.0000  Ry
     charge density cutoff     =     240.0000  Ry
     scf convergence threshold =      1.0E-10
     mixing beta               =       0.7000
     number of iterations used =            8  plain     mixing
     Exchange-correlation= SLA  PW   PBX  PBC
                           (   1   4   3   4   0   0   0)

     celldm(1)=   6.833250  celldm(2)=   0.000000  celldm(3)=   0.000000
     celldm(4)=   0.000000  celldm(5)=   0.000000  celldm(6)=   0.000000

     crystal axes: (cart. coord. in units of alat)
               a(1) = (   1.000000   0.000000   0.000000 )  
               a(2) = (   0.000000   1.000000   0.000000 )  
               a(3) = (   0.000000   0.000000   1.000000 )  

     reciprocal axes: (cart. coord. in units 2 pi/alat)
               b(1) = (  1.000000  0.000000  0.000000 )  
               b(2) = (  0.000000  1.000000  0.000000 )  
               b(3) = (  0.000000  0.000000  1.000000 )  


     PseudoPot. # 1 for N  read from file:
     ./N.pbe-n.UPF
     MD5 check sum: e746a87840c3b6211651b97878392cb0
     Pseudo is Projector augmented-wave + core cor, Zval =  5.0
     Generated using 'atomic' code by A. Dal Corso  v.6.8
     Shape of augmentation charge: PSQ
     Using radial grid of 1085 points,  4 beta functions with: 
                l(1) =   0
                l(2) =   0
                l(3) =   1
                l(4) =   1
     Q(r) pseudized with 0 coefficients 


     PseudoPot. # 2 for B  read from file:
     ./B.pbe-n.UPF
     MD5 check sum: 3db59b055dcbc9fb82d3cfbbe2c8b906
     Pseudo is Projector augmented-wave + core cor, Zval =  3.0
     Generated using 'atomic' code by A. Dal Corso  v.6.8
     Shape of augmentation charge: PSQ
     Using radial grid of 1059 points,  4 beta functions with: 
                l(1) =   0
                l(2) =   0
                l(3) =   1
                l(4) =   1
     Q(r) pseudized with 0 coefficients 


     atomic species   valence    mass     pseudopotential
     N                 5.00    14.00700     N ( 1.00)
     B                 3.00    10.81000     B ( 1.00)

     24 Sym. Ops. (no inversion) found



   Cartesian axes

     site n.     atom                  positions (alat units)
         1        N      tau(   1) = (   0.0000000   0.0000000   0.0000000  )
         2        N      tau(   2) = (   0.0000000   0.5000000   0.5000000  )
         3        N      tau(   3) = (   0.5000000   0.0000000   0.5000000  )
         4        N      tau(   4) = (   0.5000000   0.5000000   0.0000000  )
         5        B      tau(   5) = (   0.7500000   0.7500000   0.2500000  )
         6        B      tau(   6) = (   0.7500000   0.2500000   0.7500000  )
         7        B      tau(   7) = (   0.2500000   0.7500000   0.7500000  )
         8        B      tau(   8) = (   0.2500000   0.2500000   0.2500000  )

     number of k points=    84
                       cart. coord. in units 2pi/alat
        k(    1) = (   0.0000000   0.0000000   0.0000000), wk =   0.0011574
        k(    2) = (   0.0000000   0.0000000   0.0833333), wk =   0.0069444
        k(    3) = (   0.0000000   0.0000000   0.1666667), wk =   0.0069444
        k(    4) = (   0.0000000   0.0000000   0.2500000), wk =   0.0069444
        k(    5) = (   0.0000000   0.0000000   0.3333333), wk =   0.0069444
        k(    6) = (   0.0000000   0.0000000   0.4166667), wk =   0.0069444
        k(    7) = (   0.0000000   0.0000000  -0.5000000), wk =   0.0034722
        k(    8) = (   0.0000000   0.0833333   0.0833333), wk =   0.0138889
        k(    9) = (   0.0000000   0.0833333   0.1666667), wk =   0.0277778
        k(   10) = (   0.0000000   0.0833333   0.2500000), wk =   0.0277778
        k(   11) = (   0.0000000   0.0833333   0.3333333), wk =   0.0277778
        k(   12) = (   0.0000000   0.0833333   0.4166667), wk =   0.0277778
        k(   13) = (   0.0000000   0.0833333  -0.5000000), wk =   0.0138889
        k(   14) = (   0.0000000   0.1666667   0.1666667), wk =   0.0138889
        k(   15) = (   0.0000000   0.1666667   0.2500000), wk =   0.0277778
        k(   16) = (   0.0000000   0.1666667   0.3333333), wk =   0.0277778
        k(   17) = (   0.0000000   0.1666667   0.4166667), wk =   0.0277778
        k(   18) = (   0.0000000   0.1666667  -0.5000000), wk =   0.0138889
        k(   19) = (   0.0000000   0.2500000   0.2500000), wk =   0.0138889
        k(   20) = (   0.0000000   0.2500000   0.3333333), wk =   0.0277778
        k(   21) = (   0.0000000   0.2500000   0.4166667), wk =   0.0277778
        k(   22) = (   0.0000000   0.2500000  -0.5000000), wk =   0.0138889
        k(   23) = (   0.0000000   0.3333333   0.3333333), wk =   0.0138889
        k(   24) = (   0.0000000   0.3333333   0.4166667), wk =   0.0277778
        k(   25) = (   0.0000000   0.3333333  -0.5000000), wk =   0.0138889
        k(   26) = (   0.0000000   0.4166667   0.4166667), wk =   0.0138889
        k(   27) = (   0.0000000   0.4166667  -0.5000000), wk =   0.0138889
        k(   28) = (   0.0000000  -0.5000000  -0.5000000), wk =   0.0034722
        k(   29) = (   0.0833333   0.0833333   0.0833333), wk =   0.0092593
        k(   30) = (   0.0833333   0.0833333   0.1666667), wk =   0.0277778
        k(   31) = (   0.0833333   0.0833333   0.2500000), wk =   0.0277778
        k(   32) = (   0.0833333   0.0833333   0.3333333), wk =   0.0277778
        k(   33) = (   0.0833333   0.0833333   0.4166667), wk =   0.0277778
        k(   34) = (   0.0833333   0.0833333  -0.5000000), wk =   0.0138889
        k(   35) = (   0.0833333   0.1666667   0.1666667), wk =   0.0277778
        k(   36) = (   0.0833333   0.1666667   0.2500000), wk =   0.0555556
        k(   37) = (   0.0833333   0.1666667   0.3333333), wk =   0.0555556
        k(   38) = (   0.0833333   0.1666667   0.4166667), wk =   0.0555556
        k(   39) = (   0.0833333   0.1666667  -0.5000000), wk =   0.0277778
        k(   40) = (   0.0833333   0.2500000   0.2500000), wk =   0.0277778
        k(   41) = (   0.0833333   0.2500000   0.3333333), wk =   0.0555556
        k(   42) = (   0.0833333   0.2500000   0.4166667), wk =   0.0555556
        k(   43) = (   0.0833333   0.2500000  -0.5000000), wk =   0.0277778
        k(   44) = (   0.0833333   0.3333333   0.3333333), wk =   0.0277778
        k(   45) = (   0.0833333   0.3333333   0.4166667), wk =   0.0555556
        k(   46) = (   0.0833333   0.3333333  -0.5000000), wk =   0.0277778
        k(   47) = (   0.0833333   0.4166667   0.4166667), wk =   0.0277778
        k(   48) = (   0.0833333   0.4166667  -0.5000000), wk =   0.0277778
        k(   49) = (   0.0833333  -0.5000000  -0.5000000), wk =   0.0069444
        k(   50) = (   0.1666667   0.1666667   0.1666667), wk =   0.0092593
        k(   51) = (   0.1666667   0.1666667   0.2500000), wk =   0.0277778
        k(   52) = (   0.1666667   0.1666667   0.3333333), wk =   0.0277778
        k(   53) = (   0.1666667   0.1666667   0.4166667), wk =   0.0277778
        k(   54) = (   0.1666667   0.1666667  -0.5000000), wk =   0.0138889
        k(   55) = (   0.1666667   0.2500000   0.2500000), wk =   0.0277778
        k(   56) = (   0.1666667   0.2500000   0.3333333), wk =   0.0555556
        k(   57) = (   0.1666667   0.2500000   0.4166667), wk =   0.0555556
        k(   58) = (   0.1666667   0.2500000  -0.5000000), wk =   0.0277778
        k(   59) = (   0.1666667   0.3333333   0.3333333), wk =   0.0277778
        k(   60) = (   0.1666667   0.3333333   0.4166667), wk =   0.0555556
        k(   61) = (   0.1666667   0.3333333  -0.5000000), wk =   0.0277778
        k(   62) = (   0.1666667   0.4166667   0.4166667), wk =   0.0277778
        k(   63) = (   0.1666667   0.4166667  -0.5000000), wk =   0.0277778
        k(   64) = (   0.1666667  -0.5000000  -0.5000000), wk =   0.0069444
        k(   65) = (   0.2500000   0.2500000   0.2500000), wk =   0.0092593
        k(   66) = (   0.2500000   0.2500000   0.3333333), wk =   0.0277778
        k(   67) = (   0.2500000   0.2500000   0.4166667), wk =   0.0277778
        k(   68) = (   0.2500000   0.2500000  -0.5000000), wk =   0.0138889
        k(   69) = (   0.2500000   0.3333333   0.3333333), wk =   0.0277778
        k(   70) = (   0.2500000   0.3333333   0.4166667), wk =   0.0555556
        k(   71) = (   0.2500000   0.3333333  -0.5000000), wk =   0.0277778
        k(   72) = (   0.2500000   0.4166667   0.4166667), wk =   0.0277778
        k(   73) = (   0.2500000   0.4166667  -0.5000000), wk =   0.0277778
        k(   74) = (   0.2500000  -0.5000000  -0.5000000), wk =   0.0069444
        k(   75) = (   0.3333333   0.3333333   0.3333333), wk =   0.0092593
        k(   76) = (   0.3333333   0.3333333   0.4166667), wk =   0.0277778
        k(   77) = (   0.3333333   0.3333333  -0.5000000), wk =   0.0138889
        k(   78) = (   0.3333333   0.4166667   0.4166667), wk =   0.0277778
        k(   79) = (   0.3333333   0.4166667  -0.5000000), wk =   0.0277778
        k(   80) = (   0.3333333  -0.5000000  -0.5000000), wk =   0.0069444
        k(   81) = (   0.4166667   0.4166667   0.4166667), wk =   0.0092593
        k(   82) = (   0.4166667   0.4166667  -0.5000000), wk =   0.0138889
        k(   83) = (   0.4166667  -0.5000000  -0.5000000), wk =   0.0069444
        k(   84) = (  -0.5000000  -0.5000000  -0.5000000), wk =   0.0011574

     Dense  grid:    20005 G-vectors     FFT dimensions: (  36,  36,  36)

     Estimated max dynamical RAM per process >       4.57 MB

     Estimated total dynamical RAM >     209.76 MB

     Check: negative core charge=   -0.000016

     Initial potential from superposition of free atoms

     starting charge      31.9988, renormalised to      32.0000
     Starting wfcs are   32 randomized atomic wfcs
     Checking if some PAW data can be deallocated... 

     total cpu time spent up to now is        1.5 secs

     Self-consistent Calculation

     iteration #  1     ecut=    60.00 Ry     beta= 0.70
     Davidson diagonalization with overlap
     ethr =  1.00E-02,  avg # of iterations =  3.0

     total cpu time spent up to now is        4.5 secs

     total energy              =    -159.15907238 Ry
     estimated scf accuracy    <       0.87213391 Ry

     iteration #  2     ecut=    60.00 Ry     beta= 0.70
     Davidson diagonalization with overlap
     ethr =  2.73E-03,  avg # of iterations =  2.0

     total cpu time spent up to now is        6.8 secs

     total energy              =    -159.33530007 Ry
     estimated scf accuracy    <       0.36241243 Ry

     iteration #  3     ecut=    60.00 Ry     beta= 0.70
     Davidson diagonalization with overlap
     ethr =  1.13E-03,  avg # of iterations =  1.3

     total cpu time spent up to now is        8.7 secs

     total energy              =    -159.41448203 Ry
     estimated scf accuracy    <       0.00713819 Ry

     iteration #  4     ecut=    60.00 Ry     beta= 0.70
     Davidson diagonalization with overlap
     ethr =  2.23E-05,  avg # of iterations =  2.6

     total cpu time spent up to now is       11.0 secs

     total energy              =    -159.41545918 Ry
     estimated scf accuracy    <       0.00009678 Ry

     iteration #  5     ecut=    60.00 Ry     beta= 0.70
     Davidson diagonalization with overlap
     ethr =  3.02E-07,  avg # of iterations =  2.5

     total cpu time spent up to now is       13.3 secs

     total energy              =    -159.41547382 Ry
     estimated scf accuracy    <       0.00000250 Ry

     iteration #  6     ecut=    60.00 Ry     beta= 0.70
     Davidson diagonalization with overlap
     ethr =  7.82E-09,  avg # of iterations =  1.9

     total cpu time spent up to now is       15.4 secs

     total energy              =    -159.41547428 Ry
     estimated scf accuracy    <       0.00000037 Ry

     iteration #  7     ecut=    60.00 Ry     beta= 0.70
     Davidson diagonalization with overlap
     ethr =  1.16E-09,  avg # of iterations =  1.9

     total cpu time spent up to now is       17.4 secs

     total energy              =    -159.41547438 Ry
     estimated scf accuracy    <       0.00000001 Ry

     iteration #  8     ecut=    60.00 Ry     beta= 0.70
     Davidson diagonalization with overlap
     ethr =  3.69E-11,  avg # of iterations =  2.0

     total cpu time spent up to now is       19.5 secs

     total energy              =    -159.41547438 Ry
     estimated scf accuracy    <          1.8E-10 Ry

     iteration #  9     ecut=    60.00 Ry     beta= 0.70
     Davidson diagonalization with overlap
     ethr =  5.64E-13,  avg # of iterations =  2.0

     total cpu time spent up to now is       21.7 secs

     End of self-consistent calculation

          k = 0.0000 0.0000 0.0000 (  2517 PWs)   bands (ev):

    -9.0882  -3.5048  -3.5048  -3.5048   2.2260   2.2260   2.2260   6.2372
     6.2372   6.2372   6.2372   6.2372   6.2372  11.1519  11.1519  11.1519
    15.6400  15.6400  15.6400  19.9982  19.9982  19.9982  20.4335  20.4335
    20.4335  21.4738  29.0609  29.0609  29.0609  29.0609  29.0609  29.0609

          k = 0.0000 0.0000 0.0833 (  2513 PWs)   bands (ev):

    -9.0318  -3.7222  -3.4856  -3.4856   2.2733   2.2733   2.4854   6.1104
     6.1104   6.1355   6.1355   6.2932   6.2932  10.9965  11.0044  11.0044
    15.7271  15.9016  15.9016  19.8964  20.1926  20.1926  20.4961  20.6332
    20.6332  21.6568  28.8693  28.8693  28.8842  28.8842  29.0246  29.0246

          k = 0.0000 0.0000 0.1667 (  2489 PWs)   bands (ev):

    -8.8631  -4.2733  -3.4321  -3.4321   2.4142   2.4142   3.1601   5.7835
     5.7835   5.8512   5.8512   6.4600   6.4600  10.5573  10.6032  10.6032
    15.9809  16.6302  16.6302  19.6509  20.6882  20.7337  20.7337  21.2081
    21.2081  22.1042  28.3004  28.3004  28.3841  28.3841  28.8911  28.8911

          k = 0.0000 0.0000 0.2500 (  2501 PWs)   bands (ev):

    -8.5838  -4.9842  -3.3563  -3.3563   2.6438   2.6438   4.0693   5.3733
     5.3733   5.4351   5.4351   6.7346   6.7346   9.8972  10.0388  10.0388
    16.3779  17.6970  17.6970  19.3228  21.0203  21.5281  21.5281  22.0954
    22.0954  22.6379  27.3890  27.3890  27.6328  27.6328  28.5751  28.5751

          k = 0.0000 0.0000 0.3333 (  2513 PWs)   bands (ev):

    -8.1973  -5.7351  -3.2772  -3.2772   2.9522   2.9522   4.9505   4.9505
     4.9945   4.9945   5.0849   7.1117   7.1117   9.0810   9.3995   9.3995
    16.8773  18.9297  18.9486  18.9486  21.5007  22.4831  22.4831  23.0524
    23.2130  23.2130  26.2361  26.2361  26.7103  26.7103  27.9490  27.9490

          k = 0.0000 0.0000 0.4167 (  2509 PWs)   bands (ev):

    -7.7084  -6.4608  -3.2170  -3.2170   3.3114   3.3114   4.4680   4.4680
     4.7323   4.7323   6.1321   7.5827   7.5827   8.1592   8.7507   8.7507
    17.4253  18.4769  20.1614  20.1614  22.1063  23.1102  23.5279  23.5279
    24.4695  24.4695  25.0671  25.0671  25.6849  25.6849  26.9755  26.9755

          k = 0.0000 0.0000-0.5000 (  2496 PWs)   bands (ev):

    -7.1255  -7.1255  -3.1943  -3.1943   3.5554   3.5554   4.1802   4.1802
     4.6391   4.6391   7.1669   7.1669   8.1354   8.1354   8.1354   8.1354
    17.9701  17.9701  20.7753  20.7753  22.7248  22.7248  24.4644  24.4644
    24.6095  24.6095  24.6095  24.6095  25.7073  25.7073  25.8239  25.8239

          k = 0.0000 0.0833 0.0833 (  2510 PWs)   bands (ev):

    -8.9755  -3.6990  -3.6990  -3.4686   2.3207   2.5217   2.5217   5.7178
     6.1719   6.1719   6.1942   6.1942   6.3330  10.6117  10.8587  11.1104
    15.9866  15.9866  16.1180  20.0876  20.0913  20.3488  20.6946  20.6946
    20.8455  21.8498  28.6659  28.6659  28.7927  28.8629  28.8629  28.8887

          k = 0.0000 0.0833 0.1667 (  2501 PWs)   bands (ev):

    -8.8071  -4.2420  -3.6334  -3.4222   2.4614   2.6268   3.1656   5.2016
     5.8577   5.9227   6.3157   6.3463   6.3793  10.0168  10.4620  10.9197
    16.2346  16.7102  16.7406  19.8448  20.6249  20.8038  20.8828  21.2652
    21.4507  22.3140  28.0359  28.1217  28.2686  28.3821  28.7537  28.7828

          k = 0.0000 0.0833 0.2500 (  2506 PWs)   bands (ev):

    -8.5285  -4.9455  -3.5374  -3.3592   2.6903   2.7884   4.0242   4.6685
     5.4397   5.5631   6.1090   6.6219   6.7003   9.2951   9.9034  10.4726
    16.6230  17.6932  17.7713  19.5211  21.2082  21.3981  21.5200  22.1426
    22.3680  22.8575  27.0680  27.3427  27.3754  27.6377  28.4910  28.5826

          k = 0.0000 0.0833 0.3333 (  2507 PWs)   bands (ev):

    -8.1429  -5.6909  -3.4303  -3.2999   2.9842   2.9948   4.1999   4.9584
     4.9638   5.2628   5.7942   6.9975   7.1528   8.5043   9.2698   9.8495
    17.1125  18.8590  19.0168  19.1339  21.6782  22.2913  22.4444  23.2315
    23.2809  23.4826  25.8997  26.2455  26.4170  26.7119  27.9419  28.1351

          k = 0.0000 0.0833 0.4167 (  2501 PWs)   bands (ev):

    -7.6555  -6.4126  -3.3361  -3.2668   3.1872   3.3209   3.8831   4.4556
     5.1356   5.4654   5.9050   7.4660   7.6744   7.7288   8.6258   9.1346
    17.6512  18.6874  20.0465  20.2144  22.2693  23.0958  23.4548  23.5474
    24.2359  24.4185  24.9681  25.3515  25.4117  25.6771  27.0409  27.3270

          k = 0.0000 0.0833-0.5000 (  2502 PWs)   bands (ev):

    -7.0744  -7.0744  -3.2776  -3.2776   3.3687   3.3687   4.0043   4.0043
     5.2170   5.2170   6.8103   6.8103   8.0151   8.0151   8.4054   8.4054
    18.1878  18.1878  20.7472  20.7472  22.8648  22.8648  24.0742  24.0742
    24.3828  24.3828  24.5910  24.5910  25.8134  25.8134  26.2873  26.2873

          k = 0.0000 0.1667 0.1667 (  2508 PWs)   bands (ev):

    -8.6398  -4.1517  -4.1517  -3.3979   2.6012   3.1725   3.1725   4.5648
     6.0392   6.0392   6.1801   6.1801   6.6149   9.3108  10.0769  10.9730
    16.9440  16.9440  17.1066  20.3703  20.3987  21.0515  21.4404  21.4404
    22.1221  22.7898  27.4024  27.4024  28.0497  28.3708  28.3708  28.4330

          k = 0.0000 0.1667 0.2500 (  2514 PWs)   bands (ev):

    -8.3631  -4.8321  -4.0130  -3.3746   2.8257   3.1572   3.8821   3.9930
     5.6045   5.9723   6.3124   6.6366   6.6879   8.5311   9.5327  10.7323
    17.3115  17.7731  17.9887  20.0769  21.1628  21.5385  21.7426  22.2863
    23.0904  23.3113  26.3717  26.5798  27.3036  27.6514  28.2128  28.3299

          k = 0.0000 0.1667 0.3333 (  2516 PWs)   bands (ev):

    -7.9805  -5.5601  -3.8443  -3.3748   3.0949   3.1043   3.5849   4.6373
     5.1015   5.8710   6.5730   6.6827   7.2647   7.7279   8.9135  10.2431
    17.7770  18.7140  19.2174  19.7104  22.0041  22.1779  22.3314  23.2747
    23.6849  24.1549  25.2444  25.6652  26.2592  26.7157  27.8821  28.2054

          k = 0.0000 0.1667 0.4167 (  2507 PWs)   bands (ev):

    -7.4973  -6.2693  -3.6710  -3.4204   3.0402   3.1239   3.6561   4.5796
     5.3940   5.9251   6.3500   6.9316   7.1437   8.0134   8.2827   9.5775
    18.2918  19.2850  19.8024  20.3691  22.7228  22.8392  23.3305  23.6394
    23.7628  24.4188  24.7186  24.9430  25.6533  25.8409  27.2966  27.8646

          k = 0.0000 0.1667-0.5000 (  2522 PWs)   bands (ev):

    -6.9224  -6.9224  -3.5218  -3.5218   3.0314   3.0314   4.0804   4.0804
     6.1071   6.1071   6.1545   6.1545   7.6833   7.6833   8.8096   8.8096
    18.8063  18.8063  20.6623  20.6623  23.2523  23.2523  23.5910  23.5910
    23.7999  23.7999  24.5399  24.5399  25.8196  25.8196  27.2363  27.2363

          k = 0.0000 0.2500 0.2500 (  2512 PWs)   bands (ev):

    -8.0898  -4.6525  -4.6525  -3.4203   3.0155   3.4807   3.6418   3.6418
     5.8688   5.8688   6.6199   6.6199   7.0659   7.7269   9.0067  10.7096
    18.0928  18.3321  18.3321  20.8348  20.9594  21.6933  22.5315  22.5315
    23.7764  24.0616  25.5510  25.5510  26.9802  27.6698  27.6698  27.8205

          k = 0.0000 0.2500 0.3333 (  2505 PWs)   bands (ev):

    -7.7124  -5.3490  -4.4216  -3.5182   2.9605   3.3414   3.4799   4.1869
     5.3550   6.2303   6.6939   6.9263   7.2174   7.4244   8.4060  10.4030
    18.7252  18.7700  19.5375  20.5717  21.7809  22.1626  22.8755  23.2802
    24.1012  24.6289  24.7104  24.9551  26.1967  26.7196  27.6163  27.6865

          k = 0.0000 0.2500 0.4167 (  2506 PWs)   bands (ev):

    -7.2370  -6.0358  -4.1623  -3.6817   2.8220   3.0542   3.8494   4.7854
     4.8224   6.1589   6.6808   6.8467   7.1808   7.7922   8.2895   9.8539
    19.2567  19.6198  20.1879  20.6114  22.4042  23.0075  23.1514  23.2576
    23.9362  24.1742  24.5031  24.9900  25.6149  26.0794  27.5519  27.6883

          k = 0.0000 0.2500-0.5000 (  2522 PWs)   bands (ev):

    -6.6731  -6.6731  -3.9047  -3.9047   2.8599   2.8599   4.3103   4.3103
     5.4425   5.4425   7.0310   7.0310   7.2077   7.2077   9.1255   9.1255
    19.7424  19.7424  20.5459  20.5459  23.0377  23.0377  23.3360  23.3360
    23.7700  23.7700  24.4968  24.4968  25.8027  25.8027  27.6390  27.6390

          k = 0.0000 0.3333 0.3333 (  2518 PWs)   bands (ev):

    -7.3431  -5.0691  -5.0691  -3.7420   2.7405   3.6997   3.6997   3.7715
     5.7063   5.7063   6.1431   7.6062   7.6062   7.6556   7.8242  10.2933
    19.0290  19.9516  19.9516  21.4861  21.6957  22.0673  23.0800  23.0800
    24.3155  24.3155  24.4412  25.5696  25.7516  26.7234  26.7234  27.1991

          k = 0.0000 0.3333 0.4167 (  2514 PWs)   bands (ev):

    -6.8797  -5.7206  -4.7387  -4.0397   2.7235   3.2518   4.1712   4.1717
     5.1640   5.4087   6.1453   7.2280   7.7758   7.8660   8.5034   9.9139
    19.6512  20.4192  20.9097  21.2954  21.9763  22.5101  22.6633  22.9200
    24.3177  24.6169  24.6251  25.0358  25.5795  25.8698  26.7379  26.9757

          k = 0.0000 0.3333-0.5000 (  2508 PWs)   bands (ev):

    -6.3331  -6.3331  -4.3842  -4.3842   2.9079   2.9079   4.6428   4.6428
     4.7459   4.7459   6.6590   6.6590   7.8840   7.8840   9.2978   9.2978
    20.4831  20.4831  20.8873  20.8873  22.2550  22.2550  23.3023  23.3023
    24.0393  24.0393  24.7276  24.7276  25.6798  25.6798  26.8082  26.8082

          k = 0.0000 0.4167 0.4167 (  2500 PWs)   bands (ev):

    -6.4340  -5.3377  -5.3377  -4.4625   2.8451   3.6123   3.6123   4.5812
     4.7159   5.5923   5.5923   6.6480   8.3386   8.6163   8.6163   9.7272
    19.9761  21.2014  21.2014  21.6446  22.2497  22.2497  22.3249  22.8625
    24.5051  24.9028  24.9028  24.9947  25.1673  25.6608  25.6608  26.4563

          k = 0.0000 0.4167-0.5000 (  2504 PWs)   bands (ev):

    -5.9131  -5.9131  -4.9083  -4.9083   3.1553   3.1553   4.1087   4.1087
     5.0615   5.0615   6.0935   6.0935   8.5789   8.5789   9.2863   9.2863
    20.5815  20.5815  21.4221  21.4221  22.2818  22.2818  23.3986  23.3986
    23.9500  23.9500  25.0466  25.0466  25.2390  25.2390  26.0411  26.0411

          k = 0.0000-0.5000-0.5000 (  2496 PWs)   bands (ev):

    -5.4299  -5.4299  -5.4299  -5.4299   3.5672   3.5672   3.5672   3.5672
     5.5517   5.5517   5.5517   5.5517   9.0531   9.0531   9.0531   9.0531
    20.9055  20.9055  20.9055  20.9055  23.3418  23.3418  23.3418  23.3418
    24.0240  24.0240  24.0240  24.0240  25.6719  25.6719  25.6719  25.6719

          k = 0.0833 0.0833 0.0833 (  2514 PWs)   bands (ev):

    -8.9193  -3.6778  -3.6778  -3.6778   2.5560   2.5560   2.5560   5.7922
     5.7922   5.7922   6.3882   6.3882   6.3882  10.2386  10.9708  10.9708
    16.2015  16.2015  16.2015  20.2015  20.2719  20.2719  20.9056  20.9056
    20.9056  22.0428  28.6152  28.6152  28.6152  28.6853  28.6853  28.6853

          k = 0.0833 0.0833 0.1667 (  2500 PWs)   bands (ev):

    -8.7513  -4.2123  -3.6186  -3.6186   2.6535   2.6535   3.1627   5.3047
     5.3047   6.0179   6.3739   6.3739   6.5525   9.5953  10.5889  10.8692
    16.4452  16.8201  16.8201  20.0077  20.6385  20.7765  21.0898  21.5064
    21.5064  22.5067  28.0230  28.0230  28.1160  28.1287  28.5994  28.5994

          k = 0.0833 0.0833 0.2500 (  2510 PWs)   bands (ev):

    -8.4733  -4.9078  -3.5343  -3.5343   2.7948   2.7948   3.9596   4.8261
     4.8261   6.1789   6.1789   6.4000   6.8230   8.8475  10.0476  10.4898
    16.8276  17.7676  17.7676  19.6930  21.2975  21.4078  21.5211  22.4135
    22.4135  23.0456  27.0673  27.0673  27.3261  27.3726  28.4445  28.4445

          k = 0.0833 0.0833 0.3333 (  2518 PWs)   bands (ev):

    -8.0887  -5.6473  -3.4455  -3.4455   2.9399   2.9399   4.4568   4.4568
     4.8109   5.8917   5.8917   6.9402   7.1939   8.0572   9.4299   9.8973
    17.3107  18.9277  18.9277  19.3124  21.8664  22.1445  22.4212  23.4582
    23.4969  23.4969  25.9205  25.9205  26.3726  26.4694  28.0792  28.0792

          k = 0.0833 0.0833 0.4167 (  2499 PWs)   bands (ev):

    -7.6027  -6.3648  -3.3774  -3.3774   3.0339   3.0339   4.2651   4.2651
     5.6268   5.6268   5.6475   7.2577   7.6198   7.6568   8.7990   9.1712
    17.8437  18.8711  20.1016  20.1016  22.4411  23.0273  23.4111  23.6056
    24.1862  24.1862  25.2485  25.2485  25.3402  25.4755  27.3700  27.3700

          k = 0.0833 0.0833-0.5000 (  2500 PWs)   bands (ev):

    -7.0237  -7.0237  -3.3518  -3.3518   3.0597   3.0597   4.2214   4.2214
     5.5142   5.5142   6.4579   6.4579   8.1982   8.1982   8.3874   8.3874
    18.3758  18.3758  20.7285  20.7285  23.0085  23.0085  23.7954  23.7954
    24.2988  24.2988  24.4424  24.4424  25.9246  25.9246  26.6109  26.6109

          k = 0.0833 0.1667 0.1667 (  2515 PWs)   bands (ev):

    -8.5844  -4.1268  -4.1268  -3.5795   2.7204   3.1401   3.1401   4.7307
     5.6156   5.6156   6.5497   6.5497   6.6675   8.8841  10.3238  10.8558
    17.0527  17.0527  17.1844  20.4185  20.5109  21.0035  21.6769  21.6769
    22.1731  22.9605  27.4078  27.4078  27.8707  28.1208  28.1208  28.1575

          k = 0.0833 0.1667 0.2500 (  2516 PWs)   bands (ev):

    -8.3084  -4.7978  -3.9972  -3.5317   2.7805   3.0648   3.7598   4.2951
     5.2617   6.1223   6.4004   6.7423   6.8510   8.0981   9.8150  10.6406
    17.4191  17.8476  17.9860  20.1787  21.1204  21.5324  21.9704  22.5516
    23.1302  23.4696  26.3831  26.5884  27.0459  27.3690  28.0090  28.1022

          k = 0.0833 0.1667 0.3333 (  2501 PWs)   bands (ev):

    -7.9268  -5.5187  -3.8432  -3.4992   2.7618   2.9236   4.1287   4.4142
     4.9977   6.2185   6.6368   6.7531   7.2993   7.3082   9.2156  10.1735
    17.8849  18.7836  19.1299  19.8230  21.8954  22.3195  22.3918  23.5231
    23.8374  24.1536  25.2832  25.6661  25.9761  26.4380  27.8451  28.0288

          k = 0.0833 0.1667 0.4167 (  2503 PWs)   bands (ev):

    -7.4453  -6.2231  -3.6919  -3.5075   2.6873   2.7661   4.2366   4.7582
     5.0839   6.1437   6.4349   6.5220   7.3791   7.9663   8.5912   9.5164
    18.4019  19.4002  19.8619  20.2636  22.7583  22.9159  23.2568  23.6137
    23.8952  24.1807  24.7040  25.1867  25.4109  25.7665  27.4926  27.8013

          k = 0.0833 0.1667-0.5000 (  2506 PWs)   bands (ev):

    -6.8728  -6.8728  -3.5728  -3.5728   2.6735   2.6735   4.4866   4.4866
     5.7828   5.7828   6.2365   6.2365   7.9780   7.9780   8.7484   8.7484
    18.9197  18.9197  20.6675  20.6675  23.3729  23.3729  23.3896  23.3896
    23.7872  23.7872  24.3635  24.3635  25.9630  25.9630  27.3674  27.3674

          k = 0.0833 0.2500 0.2500 (  2517 PWs)   bands (ev):

    -8.0359  -4.6244  -4.6244  -3.5488   2.6673   3.4382   3.4382   4.0594
     5.8513   5.8513   6.8163   6.8163   7.1138   7.2933   9.3342  10.6248
    18.1661  18.3319  18.3319  20.8862  20.9141  21.6868  22.7858  22.7858
    23.9266  24.0883  25.5651  25.5651  26.8015  27.3958  27.3958  27.4475

          k = 0.0833 0.2500 0.3333 (  2509 PWs)   bands (ev):

    -7.6598  -5.3119  -4.4041  -3.6108   2.4897   3.0591   3.8933   4.1394
     5.5404   6.4382   6.4958   6.8303   7.2654   7.4681   8.7578  10.3367
    18.7749  18.7952  19.4534  20.6011  21.6925  22.1568  23.1099  23.4773
    24.2561  24.7063  24.7219  24.9135  26.0044  26.4487  27.3239  27.4318

          k = 0.0833 0.2500 0.4167 (  2514 PWs)   bands (ev):

    -7.1864  -5.9924  -4.1612  -3.7371   2.3992   2.7117   4.4086   4.4295
     5.1671   5.7399   6.9379   6.9923   7.2344   8.1532   8.2735   9.8029
    19.2699  19.6826  20.2183  20.5207  22.3569  22.9859  23.0477  23.4347
    23.9638  24.2638  24.3371  25.1958  25.3847  26.0572  27.4171  27.4791

          k = 0.0833 0.2500-0.5000 (  2512 PWs)   bands (ev):

    -6.6254  -6.6254  -3.9279  -3.9279   2.4747   2.4747   4.7715   4.7715
     5.0469   5.0469   7.0974   7.0974   7.5592   7.5592   9.0879   9.0879
    19.7656  19.7656  20.5772  20.5772  23.0300  23.0300  23.1299  23.1299
    23.8455  23.8455  24.4146  24.4146  25.9155  25.9155  27.5165  27.5165

          k = 0.0833 0.3333 0.3333 (  2521 PWs)   bands (ev):

    -7.2922  -5.0391  -5.0391  -3.7986   2.3028   3.3517   3.3517   4.3615
     5.7114   6.0291   6.0291   7.6481   7.6481   7.6958   8.2062  10.2446
    19.0975  19.8736  19.8736  21.4933  21.5684  22.0563  23.1808  23.1808
    24.4593  24.4593  24.6076  25.4455  25.5797  26.4738  26.4738  26.9511

          k = 0.0833 0.3333 0.4167 (  2515 PWs)   bands (ev):

    -6.8314  -5.6819  -4.7200  -4.0635   2.3024   2.8672   3.7827   4.7034
     4.9819   5.5740   6.5250   7.6262   7.8155   7.9035   8.5068   9.8817
    19.7149  20.3508  20.8471  21.2494  21.9631  22.4699  22.7047  22.7856
    24.3930  24.4396  24.8061  25.1774  25.4122  25.7108  26.5520  26.9448

          k = 0.0833 0.3333-0.5000 (  2512 PWs)   bands (ev):

    -6.2886  -6.2886  -4.3828  -4.3828   2.5009   2.5009   4.3323   4.3323
     5.1192   5.1192   7.0583   7.0583   7.9219   7.9219   9.2811   9.2811
    20.5309  20.5309  20.8308  20.8308  22.2666  22.2666  23.1021  23.1021
    23.8851  23.8851  24.8781  24.8781  25.6503  25.6503  26.7609  26.7609

          k = 0.0833 0.4167 0.4167 (  2499 PWs)   bands (ev):

    -6.3892  -5.3065  -5.3065  -4.4610   2.4218   3.2023   3.2023   4.2871
     5.0867   6.0258   6.0258   7.0713   8.3667   8.6308   8.6308   9.7114
    20.0369  21.1875  21.1875  21.6635  22.1667  22.1667  22.2630  22.6466
    24.3522  24.8019  24.8019  24.8270  25.1903  25.7250  25.7250  26.6187

          k = 0.0833 0.4167-0.5000 (  2508 PWs)   bands (ev):

    -5.8737  -5.8737  -4.8889  -4.8889   2.7345   2.7345   3.6850   3.6850
     5.5358   5.5358   6.5291   6.5291   8.6003   8.6003   9.2847   9.2847
    20.6337  20.6337  21.4502  21.4502  22.1651  22.1651  23.2167  23.2167
    23.7279  23.7279  24.7850  24.7850  25.4450  25.4450  26.2336  26.2336

          k = 0.0833-0.5000-0.5000 (  2488 PWs)   bands (ev):

    -5.3983  -5.3983  -5.3983  -5.3983   3.1410   3.1410   3.1410   3.1410
     6.0121   6.0121   6.0121   6.0121   9.0630   9.0630   9.0630   9.0630
    20.9528  20.9528  20.9528  20.9528  23.2250  23.2250  23.2250  23.2250
    23.7188  23.7188  23.7188  23.7188  25.8906  25.8906  25.8906  25.8906

          k = 0.1667 0.1667 0.1667 (  2515 PWs)   bands (ev):

    -8.4188  -4.0568  -4.0568  -4.0568   3.0208   3.0208   3.0208   5.2131
     5.2131   5.2131   6.8243   6.8243   6.8243   8.1371  10.5299  10.5299
    17.4124  17.4124  17.4124  20.5094  20.9085  20.9085  22.3285  22.3285
    22.3285  23.3772  27.3745  27.3745  27.3745  27.4753  27.4753  27.4753

          k = 0.1667 0.1667 0.2500 (  2512 PWs)   bands (ev):

    -8.1450  -4.6984  -3.9559  -3.9559   2.7902   2.7902   3.4200   5.0016
     5.0016   5.9483   6.9063   6.9063   7.0816   7.3277  10.0571  10.4507
    17.7736  18.0667  18.0667  20.4576  21.0953  21.5071  22.5945  23.2505
    23.2505  23.8543  26.4127  26.4127  26.5822  26.6533  27.4568  27.4568

          k = 0.1667 0.1667 0.3333 (  2508 PWs)   bands (ev):

    -7.7668  -5.3973  -3.8481  -3.8481   2.5040   2.5040   3.8917   4.9781
     4.9781   6.5243   6.8323   6.8359   6.8359   7.4331   9.5051  10.0745
    18.2360  18.9892  18.9892  20.1574  21.6970  22.2471  22.9732  24.1143
    24.1143  24.2004  25.4130  25.4130  25.5869  25.8015  27.4843  27.4843

          k = 0.1667 0.1667 0.4167 (  2508 PWs)   bands (ev):

    -7.2904  -6.0862  -3.7642  -3.7642   2.2744   2.2744   4.4384   5.0443
     5.0443   5.7625   6.7114   6.7114   7.7639   7.8691   8.9304   9.4545
    18.7534  19.7513  20.0378  20.0378  22.5253  23.0809  23.4354  23.6203
    23.6203  24.2454  24.5586  24.8915  25.6838  25.6838  27.5155  27.5155

          k = 0.1667 0.1667-0.5000 (  2490 PWs)   bands (ev):

    -6.7252  -6.7252  -3.7322  -3.7322   2.1877   2.1877   5.0633   5.0633
     5.0855   5.0855   6.6499   6.6499   8.3752   8.3752   8.6613   8.6613
    19.2734  19.2734  20.6724  20.6724  22.9793  22.9793  23.4581  23.4581
    23.9728  23.9728  23.9815  23.9815  26.1069  26.1069  27.5395  27.5395

          k = 0.1667 0.2500 0.2500 (  2509 PWs)   bands (ev):

    -7.8752  -4.5453  -4.5453  -3.9079   2.4104   2.9544   2.9544   4.9756
     5.8847   5.8847   6.5045   7.1849   7.1849   7.2563   9.7871  10.3837
    18.3821  18.4157  18.4157  20.7850  21.1465  21.6312  23.4506  23.4506
    24.1659  24.2931  25.6089  25.6089  26.3154  26.6579  26.6661  26.6661

          k = 0.1667 0.2500 0.3333 (  2506 PWs)   bands (ev):

    -7.5032  -5.2040  -4.3584  -3.8822   2.0677   2.4821   3.2715   5.1126
     5.7015   5.8542   6.7914   7.2011   7.4090   7.6022   9.2923  10.1524
    18.8663  19.0020  19.3191  20.6972  21.5496  22.1118  23.7099  23.8828
    24.6223  24.7076  24.7645  24.9847  25.6231  25.7425  26.6921  26.7518

          k = 0.1667 0.2500 0.4167 (  2506 PWs)   bands (ev):

    -7.0359  -5.8646  -4.1675  -3.9098   1.8743   2.1019   3.7224   4.9550
     5.3345   5.7621   7.2267   7.3995   7.5617   8.2217   8.7415   9.6628
    19.3743  19.8688  20.3217  20.3429  22.2043  22.8420  22.9890  23.7030
    23.7088  24.2025  24.7158  24.8061  25.5998  25.9281  26.9384  27.0135

          k = 0.1667 0.2500-0.5000 (  2494 PWs)   bands (ev):

    -6.4841  -6.4841  -4.0079  -4.0079   1.8854   1.8854   4.2892   4.2892
     5.5740   5.5740   7.3089   7.3089   8.1733   8.1733   8.9774   8.9775
    19.8847  19.8847  20.6623  20.6623  22.7101  22.7101  22.9627  22.9627
    23.7021  23.7021  24.5747  24.5747  25.9769  25.9769  27.1827  27.1827

          k = 0.1667 0.3333 0.3333 (  2510 PWs)   bands (ev):

    -7.1409  -4.9539  -4.9539  -3.9752   1.7682   2.6728   2.6728   4.9081
     5.3521   6.6155   6.6155   7.7787   7.7787   7.8147   8.8425  10.1020
    19.2995  19.7500  19.7500  21.3019  21.5302  22.0282  23.3684  23.3684
    24.8485  24.8485  24.9812  25.0203  25.1210  25.8491  25.8491  26.5822

          k = 0.1667 0.3333 0.4167 (  2498 PWs)   bands (ev):

    -6.6881  -5.5692  -4.6710  -4.1463   1.6817   2.1710   3.0399   4.1825
     5.6593   6.3352   7.2305   7.9371   8.0148   8.3239   8.5129   9.7862
    19.9027  20.2419  20.6960  21.1558  21.9051  22.4354  22.5354  22.7860
    23.8579  24.4557  25.1906  25.2366  25.2661  25.2714  26.2603  26.8771

          k = 0.1667 0.3333-0.5000 (  2498 PWs)   bands (ev):

    -6.1576  -6.1576  -4.3887  -4.3887   1.8246   1.8246   3.5518   3.5518
     6.0002   6.0002   7.7842   7.7842   8.0357   8.0357   9.2287   9.2287
    20.6697  20.6697  20.7367  20.7367  22.2805  22.2805  22.6597  22.6597
    23.4967  23.4967  25.2388  25.2388  25.3209  25.3209  26.7650  26.7650

          k = 0.1667 0.4167 0.4167 (  2501 PWs)   bands (ev):

    -6.2571  -5.2180  -5.2180  -4.4667   1.7281   2.4492   2.4492   3.4867
     6.0278   6.8410   6.8410   7.8407   8.4487   8.6715   8.6715   9.6626
    20.2155  21.1258  21.1258  21.6915  22.0421  22.0421  22.1124  22.2221
    23.9513  24.1356  24.3803  24.3803  25.5714  25.9809  25.9809  26.8075

          k = 0.1667 0.4167-0.5000 (  2498 PWs)   bands (ev):

    -5.7589  -5.7589  -4.8381  -4.8381   1.9971   1.9971   2.8990   2.8990
     6.4295   6.4295   7.3396   7.3396   8.6627   8.6627   9.2774   9.2774
    20.7862  20.7862  21.5190  21.5190  21.9029  21.9029  22.7848  22.7848
    23.2677  23.2677  24.2327  24.2327  25.8193  25.8193  26.5222  26.5222

          k = 0.1667-0.5000-0.5000 (  2500 PWs)   bands (ev):

    -5.3088  -5.3088  -5.3088  -5.3088   2.3684   2.3684   2.3684   2.3684
     6.8793   6.8793   6.8793   6.8793   9.0902   9.0902   9.0902   9.0902
    21.0878  21.0878  21.0878  21.0878  22.9250  22.9250  22.9250  22.9250
    23.1053  23.1053  23.1053  23.1053  26.2420  26.2420  26.2420  26.2420

          k = 0.2500 0.2500 0.2500 (  2494 PWs)   bands (ev):

    -7.6101  -4.4302  -4.4302  -4.4302   2.3956   2.3956   2.3956   5.6683
     5.9926   5.9926   5.9926   7.4889   7.4889   7.4889  10.0207  10.0207
    18.7277  18.7277  18.7278  20.8098  21.5184  21.5184  24.2765  24.2765
    24.2765  24.7111  25.6310  25.6310  25.6310  25.7559  25.7559  25.7560

          k = 0.2500 0.2500 0.3333 (  2502 PWs)   bands (ev):

    -7.2456  -5.0364  -4.3056  -4.3056   1.9024   1.9024   2.5946   4.8636
     6.1371   6.1371   7.0283   7.6499   7.6499   7.8042   9.5798   9.9393
    19.1764  19.3340  19.3340  20.8713  21.5210  22.0133  24.1981  24.1981
    24.2562  24.8544  24.9974  25.0335  25.3056  25.3056  26.0042  26.0042

          k = 0.2500 0.2500 0.4167 (  2507 PWs)   bands (ev):

    -6.7896  -5.6601  -4.2072  -4.2072   1.5661   1.5661   2.9698   4.1285
     6.2660   6.2660   7.6941   7.6941   8.0118   8.1904   9.1042   9.5394
    19.6847  20.1699  20.1699  20.6278  21.9778  22.6147  23.0712  23.0712
    23.5851  24.0624  24.9329  25.1635  25.4933  25.4933  26.6108  26.6108

          k = 0.2500 0.2500-0.5000 (  2516 PWs)   bands (ev):

    -6.2547  -6.2547  -4.1694  -4.1694   1.4466   1.4466   3.4895   3.4895
     6.3194   6.3194   7.6951   7.6951   8.6312   8.6312   8.8730   8.8730
    20.1924  20.1924  20.7735  20.7735  22.3514  22.3514  22.7258  22.7258
    23.3051  23.3051  25.0948  25.0948  25.5341  25.5341  26.9269  26.9269

          k = 0.2500 0.3333 0.3333 (  2495 PWs)   bands (ev):

    -6.8930  -4.8293  -4.8293  -4.2789   1.4584   1.9853   1.9853   4.0665
     6.4053   7.1114   7.1114   8.0019   8.0019   8.0069   9.3509   9.8765
    19.6233  19.7673  19.7673  21.0961  21.6323  21.9627  23.5220  23.5220
    24.3229  24.4968  24.6958  24.6958  25.3713  25.6901  25.6901  26.3607

          k = 0.2500 0.3333 0.4167 (  2488 PWs)   bands (ev):

    -6.4552  -5.3934  -4.6139  -4.3140   1.2289   1.5178   2.2792   3.3506
     6.6660   7.0593   7.9008   8.1510   8.1973   8.5139   8.9338   9.6337
    20.2037  20.2594  20.5684  21.1058  21.7937  22.3352  22.4857  22.8451
    23.2181  23.8436  24.5438  24.6842  25.5769  25.6600  26.4094  26.7768

          k = 0.2500 0.3333-0.5000 (  2494 PWs)   bands (ev):

    -5.9474  -5.9474  -4.4300  -4.4300   1.2514   1.2514   2.7453   2.7453
     6.8972   6.8972   8.2299   8.2299   8.4630   8.4630   9.1360   9.1360
    20.7436  20.7436  20.8827  20.8827  22.2073  22.2073  22.2444  22.2444
    23.0159  23.0159  24.6341  24.6341  25.6545  25.6545  26.8129  26.8129

          k = 0.2500 0.4167 0.4167 (  2494 PWs)   bands (ev):

    -6.0451  -5.0882  -5.0882  -4.5083   1.1447   1.7111   1.7111   2.6652
     7.0225   7.6567   7.6567   8.5656   8.5781   8.7312   8.7312   9.5785
    20.4973  21.0327  21.0327  21.5619  21.9527  21.9791  22.0258  22.0258
    23.3694  23.4256  23.7237  23.7237  25.8987  26.2772  26.2772  26.8381

          k = 0.2500 0.4167-0.5000 (  2488 PWs)   bands (ev):

    -5.5794  -5.5794  -4.7788  -4.7788   1.3168   1.3168   2.1070   2.1070
     7.3562   7.3562   8.1380   8.1380   8.7594   8.7594   9.2579   9.2579
    21.0241  21.0241  21.5119  21.5119  21.7345  21.7345  22.2918  22.2918
    22.7685  22.7685  23.5744  23.5744  26.1227  26.1227  26.6779  26.6779

          k = 0.2500-0.5000-0.5000 (  2484 PWs)   bands (ev):

    -5.1772  -5.1772  -5.1772  -5.1772   1.6164   1.6164   1.6164   1.6164
     7.7640   7.7640   7.7640   7.7640   9.1280   9.1280   9.1280   9.1280
    21.2854  21.2854  21.2854  21.2854  22.4693  22.4693  22.4693  22.4693
    22.5516  22.5516  22.5516  22.5516  26.4593  26.4593  26.4593  26.4593

          k = 0.3333 0.3333 0.3333 (  2485 PWs)   bands (ev):

    -6.5562  -4.6933  -4.6933  -4.6933   1.4133   1.4133   1.4133   3.2766
     7.4250   7.4250   7.4250   8.2628   8.2628   8.2628   9.5861   9.5861
    20.0434  20.0434  20.0434  21.0729  21.8352  21.8352  23.5176  23.5176
    23.5176  23.8213  23.8213  23.8213  25.6755  26.2282  26.2282  26.2282

          k = 0.3333 0.3333 0.4167 (  2485 PWs)   bands (ev):

    -6.1427  -5.1749  -4.5847  -4.5847   1.0327   1.0327   1.6125   2.5818
     7.5953   7.5953   8.3319   8.4528   8.4528   8.5687   9.2541   9.4821
    20.5128  20.5937  20.5937  21.1654  21.7359  22.1606  22.6026  22.6026
    22.7315  23.1757  23.7634  23.7634  25.8781  26.1220  26.6375  26.6375

          k = 0.3333 0.3333-0.5000 (  2484 PWs)   bands (ev):

    -5.6723  -5.6723  -4.5427  -4.5427   0.8985   0.8985   2.0155   2.0155
     7.6512   7.6512   8.5184   8.5184   8.9066   8.9066   9.0445   9.0445
    20.9498  20.9498  21.1265  21.1265  21.9027  21.9027  22.0705  22.0705
    22.6119  22.6119  23.7848  23.7848  26.0139  26.0139  26.7836  26.7836

          k = 0.3333 0.4167 0.4167 (  2482 PWs)   bands (ev):

    -5.7674  -4.9456  -4.9456  -4.6226   0.7873   1.1056   1.1056   1.9240
     7.9408   8.3192   8.3192   8.7436   8.8056   8.8056   9.0874   9.4576
    20.8499  21.0253  21.0253  21.3190  21.8639  21.9618  22.0888  22.0888
    22.6419  22.8905  23.0004  23.0004  26.0994  26.4683  26.4683  26.7280

          k = 0.3333 0.4167-0.5000 (  2484 PWs)   bands (ev):

    -5.3556  -5.3556  -4.7480  -4.7480   0.8155   0.8155   1.4176   1.4176
     8.1711   8.1711   8.7712   8.7712   8.8821   8.8821   9.2174   9.2174
    21.3155  21.3155  21.3771  21.3771  21.7729  21.7729  21.8676  21.8676
    22.3489  22.3489  22.9123  22.9123  26.2870  26.2870  26.6691  26.6691

          k = 0.3333-0.5000-0.5000 (  2492 PWs)   bands (ev):

    -5.0326  -5.0326  -5.0326  -5.0326   1.0011   1.0011   1.0011   1.0011
     8.5156   8.5156   8.5156   8.5156   9.1663   9.1663   9.1663   9.1663
    21.4720  21.4720  21.4720  21.4720  21.9665  21.9665  21.9665  21.9665
    22.2107  22.2107  22.2107  22.2107  26.4989  26.4989  26.4989  26.4989

          k = 0.4167 0.4167 0.4167 (  2485 PWs)   bands (ev):

    -5.4473  -4.8312  -4.8312  -4.8312   0.7047   0.7047   0.7047   1.3175
     8.6849   8.6849   8.6849   8.9307   8.9307   8.9307   9.3029   9.3029
    21.2040  21.2040  21.2040  21.2495  21.9010  21.9010  22.0467  22.0467
    22.0467  22.4280  22.4280  22.4280  26.2237  26.5440  26.5440  26.5440

          k = 0.4167 0.4167-0.5000 (  2488 PWs)   bands (ev):

    -5.1201  -5.1201  -4.7868  -4.7868   0.5635   0.5635   0.8944   0.8944
     8.7553   8.7553   9.0326   9.0326   9.1227   9.1227   9.1626   9.1626
    21.3488  21.3488  21.5334  21.5334  21.6566  21.6566  21.7919  21.7919
    22.0896  22.0896  22.3393  22.3393  26.3611  26.3611  26.5588  26.5588

          k = 0.4167-0.5000-0.5000 (  2476 PWs)   bands (ev):

    -4.9163  -4.9163  -4.9163  -4.9163   0.5943   0.5943   0.5943   0.5943
     9.0244   9.0244   9.0244   9.0244   9.1948   9.1948   9.1948   9.1948
    21.4110  21.4110  21.4110  21.4110  21.8498  21.8498  21.8498  21.8498
    21.9776  21.9776  21.9776  21.9776  26.4389  26.4389  26.4389  26.4389

          k =-0.5000-0.5000-0.5000 (  2512 PWs)   bands (ev):

    -4.8712  -4.8712  -4.8712  -4.8712   0.4510   0.4510   0.4510   0.4510
     9.2053   9.2053   9.2053   9.2053   9.2053   9.2053   9.2053   9.2053
    21.3107  21.3107  21.3107  21.3107  21.8953  21.8953  21.8953  21.8953
    21.8953  21.8953  21.8953  21.8953  26.3990  26.3990  26.3990  26.3990

     highest occupied, lowest unoccupied level (ev):    11.1519   15.6400

!    total energy              =    -159.41547438 Ry
     total all-electron energy =      -637.568056 Ry
     estimated scf accuracy    <          1.2E-11 Ry

     The total energy is the sum of the following terms:
     one-electron contribution =      19.73008573 Ry
     hartree contribution      =      14.46370535 Ry
     xc contribution           =     -35.57624085 Ry
     ewald contribution        =    -105.33400558 Ry
     one-center paw contrib.   =     -52.69901903 Ry

     convergence has been achieved in   9 iterations

     Writing all to output data dir ./N4B4.save/ :
     XML data file, charge density, pseudopotentials, collected wavefunctions

     init_run     :      0.97s CPU      1.04s WALL (       1 calls)
     electrons    :     19.45s CPU     20.26s WALL (       1 calls)

     Called by init_run:
     wfcinit      :      0.62s CPU      0.65s WALL (       1 calls)
     potinit      :      0.06s CPU      0.07s WALL (       1 calls)
     hinit0       :      0.28s CPU      0.29s WALL (       1 calls)

     Called by electrons:
     c_bands      :     16.85s CPU     17.44s WALL (       9 calls)
     sum_band     :      2.15s CPU      2.26s WALL (       9 calls)
     v_of_rho     :      0.06s CPU      0.07s WALL (      10 calls)
     newd         :      0.02s CPU      0.02s WALL (      10 calls)
     PAW_pot      :      0.38s CPU      0.48s WALL (      10 calls)
     mix_rho      :      0.01s CPU      0.01s WALL (       9 calls)

     Called by c_bands:
     init_us_2    :      0.09s CPU      0.10s WALL (     532 calls)
     cegterg      :     16.00s CPU     16.57s WALL (     252 calls)

     Called by *egterg:
     cdiaghg      :      2.48s CPU      2.52s WALL (     816 calls)
     h_psi        :      9.58s CPU     10.01s WALL (     844 calls)
     s_psi        :      0.91s CPU      0.93s WALL (     844 calls)
     g_psi        :      0.02s CPU      0.02s WALL (     564 calls)

     Called by h_psi:
     h_psi:calbec :      1.05s CPU      1.13s WALL (     844 calls)
     vloc_psi     :      7.61s CPU      7.94s WALL (     844 calls)
     add_vuspsi   :      0.90s CPU      0.92s WALL (     844 calls)

     General routines
     calbec       :      1.46s CPU      1.58s WALL (    1096 calls)
     fft          :      0.22s CPU      0.22s WALL (     110 calls)
     ffts         :      0.00s CPU      0.00s WALL (       9 calls)
     fftw         :      8.49s CPU      8.85s WALL (   46920 calls)

     Parallel routines

     PWSCF        :     20.98s CPU     23.13s WALL


   This run was terminated on:   9:10:58   8Nov2024            

=------------------------------------------------------------------------------=
   JOB DONE.
=------------------------------------------------------------------------------=
